
     Program PWSCF v.6.0 (svn rev. 13079) starts on  3Apr2019 at  1:18:39 

     This program is part of the open-source Quantum ESPRESSO suite
     for quantum simulation of materials; please cite
         "P. Giannozzi et al., J. Phys.:Condens. Matter 21 395502 (2009);
          URL http://www.quantum-espresso.org", 
     in publications or presentations arising from this work. More details at
     http://www.quantum-espresso.org/quote

     Parallel version (MPI), running on     1 processors
     Waiting for input...
     Reading input from standard input

     Current dimensions of program PWSCF are:
     Max number of different atomic species (ntypx) = 10
     Max number of k-points (npk) =  40000
     Max angular momentum in pseudopotentials (lmaxx) =  3

     Atomic positions and unit cell read from directory:
     ./ZGNR15.save/

               file C.pbe-n-kjpaw_psl.0.1.UPF: wavefunction(s)  2P renormalized
               file H.pbe-kjpaw_psl.0.1.UPF: wavefunction(s)  1S renormalized

     Subspace diagonalization in iterative solution of the eigenvalue problem:
     a serial algorithm will be used


     G-vector sticks info
     --------------------
     sticks:   dense  smooth     PW     G-vecs:    dense   smooth      PW
     Sum       15077    6747   2075              2295449   681651  115295



     bravais-lattice index     =            0
     lattice parameter (alat)  =       4.6487  a.u.
     unit-cell volume          =   19921.0837 (a.u.)^3
     number of atoms/cell      =           32
     number of atomic types    =            2
     number of electrons       =       122.00
     number of Kohn-Sham states=           90
     kinetic-energy cutoff     =      40.0000  Ry
     charge density cutoff     =     360.0000  Ry
     Exchange-correlation      =  SLA  PW   PBX  PBC ( 1  4  3  4 0 0)

     celldm(1)=   4.648726  celldm(2)=   0.000000  celldm(3)=   0.000000
     celldm(4)=   0.000000  celldm(5)=   0.000000  celldm(6)=   0.000000

     crystal axes: (cart. coord. in units of alat)
               a(1) = (   1.000000   0.000000   0.000000 )  
               a(2) = (   0.000000  24.390244   0.000000 )  
               a(3) = (   0.000000   0.000000   8.130081 )  

     reciprocal axes: (cart. coord. in units 2 pi/alat)
               b(1) = (  1.000000  0.000000  0.000000 )  
               b(2) = (  0.000000  0.041000  0.000000 )  
               b(3) = (  0.000000  0.000000  0.123000 )  


     PseudoPot. # 1 for  C read from file:
     /mnt/hgfs/Linux_NTNU/QE_docs/PSEUDO_POTENTIALS/C.pbe-n-kjpaw_psl.0.1.UPF
     MD5 check sum: bf2aebf1cd97aced799cfc3ffd9ff9ea
     Pseudo is Projector augmented-wave + core cor, Zval =  4.0
     Generated using "atomic" code by A. Dal Corso  v.5.0.2 svn rev. 9415
     Shape of augmentation charge: BESSEL
     Using radial grid of 1073 points,  4 beta functions with: 
                l(1) =   0
                l(2) =   0
                l(3) =   1
                l(4) =   1
     Q(r) pseudized with 0 coefficients 


     PseudoPot. # 2 for  H read from file:
     /mnt/hgfs/Linux_NTNU/QE_docs/PSEUDO_POTENTIALS/H.pbe-kjpaw_psl.0.1.UPF
     MD5 check sum: fbb168fef676c0aaadbafd73f5b1efa8
     Pseudo is Projector augmented-wave, Zval =  1.0
     Generated using "atomic" code by A. Dal Corso  v.5.0.2 svn rev. 9415
     Shape of augmentation charge: PSQ
     Using radial grid of  929 points,  2 beta functions with: 
                l(1) =   0
                l(2) =   0
     Q(r) pseudized with 0 coefficients 


     atomic species   valence    mass     pseudopotential
        C              4.00    12.01100      C( 1.00)
        H              1.00     1.00000      H( 1.00)

      2 Sym. Ops. (no inversion) found



   Cartesian axes

     site n.     atom                  positions (alat units)
         1           C   tau(   1) = (   0.0000000   0.0000000   0.0000000  )
         2           C   tau(   2) = (   0.4999008   0.2886179   0.0000000  )
         3           C   tau(   3) = (   0.0000000  -0.5772358   0.0000000  )
         4           C   tau(   4) = (   0.4999008  -0.8658537   0.0000000  )
         5           C   tau(   5) = (   0.0000000  -1.7317073   0.0000000  )
         6           C   tau(   6) = (   0.4999008  -1.4430894   0.0000000  )
         7           C   tau(   7) = (   0.0000000  -2.3089431   0.0000000  )
         8           C   tau(   8) = (   0.4999008  -2.5975610   0.0000000  )
         9           C   tau(   9) = (   0.0000000  -3.4634146   0.0000000  )
        10           C   tau(  10) = (   0.4999008  -3.1747967   0.0000000  )
        11           C   tau(  11) = (   0.0000000  -4.0406504   0.0000000  )
        12           C   tau(  12) = (   0.4999008  -4.3292683   0.0000000  )
        13           C   tau(  13) = (   0.0000000  -5.1951220   0.0000000  )
        14           C   tau(  14) = (   0.4999008  -4.9065041   0.0000000  )
        15           C   tau(  15) = (   0.0000000  -5.7723577   0.0000000  )
        16           C   tau(  16) = (   0.4999008  -6.0609756   0.0000000  )
        17           C   tau(  17) = (   0.0000000  -6.9268293   0.0000000  )
        18           C   tau(  18) = (   0.4999008  -6.6382114   0.0000000  )
        19           C   tau(  19) = (   0.0000000  -7.5040650   0.0000000  )
        20           C   tau(  20) = (   0.4999008  -7.7926829   0.0000000  )
        21           C   tau(  21) = (   0.0000000  -8.6585366   0.0000000  )
        22           C   tau(  22) = (   0.4999008  -8.3699187   0.0000000  )
        23           C   tau(  23) = (   0.0000000  -9.2357724   0.0000000  )
        24           C   tau(  24) = (   0.4999008  -9.5243902   0.0000000  )
        25           C   tau(  25) = (   0.0000000 -10.3902439   0.0000000  )
        26           C   tau(  26) = (   0.4999008 -10.1016260   0.0000000  )
        27           C   tau(  27) = (   0.0000000 -10.9674797   0.0000000  )
        28           C   tau(  28) = (   0.4999008 -11.2560976   0.0000000  )
        29           C   tau(  29) = (   0.0000000 -12.1219512   0.0000000  )
        30           C   tau(  30) = (   0.4999008 -11.8333333   0.0000000  )
        31           H   tau(  31) = (   0.4999008   0.7357724   0.0000000  )
        32           H   tau(  32) = (   0.0000000 -12.5691057   0.0000000  )

     number of k points=    31  gaussian smearing, width (Ry)=  0.0300
                       cart. coord. in units 2pi/alat
        k(    1) = (   0.0000000   0.0000000   0.0000000), wk =   0.0645161
        k(    2) = (   0.0166667   0.0000000   0.0000000), wk =   0.0645161
        k(    3) = (   0.0333333   0.0000000   0.0000000), wk =   0.0645161
        k(    4) = (   0.0500000   0.0000000   0.0000000), wk =   0.0645161
        k(    5) = (   0.0666667   0.0000000   0.0000000), wk =   0.0645161
        k(    6) = (   0.0833333   0.0000000   0.0000000), wk =   0.0645161
        k(    7) = (   0.1000000   0.0000000   0.0000000), wk =   0.0645161
        k(    8) = (   0.1166667   0.0000000   0.0000000), wk =   0.0645161
        k(    9) = (   0.1333333   0.0000000   0.0000000), wk =   0.0645161
        k(   10) = (   0.1500000   0.0000000   0.0000000), wk =   0.0645161
        k(   11) = (   0.1666667   0.0000000   0.0000000), wk =   0.0645161
        k(   12) = (   0.1833333   0.0000000   0.0000000), wk =   0.0645161
        k(   13) = (   0.2000000   0.0000000   0.0000000), wk =   0.0645161
        k(   14) = (   0.2166667   0.0000000   0.0000000), wk =   0.0645161
        k(   15) = (   0.2333333   0.0000000   0.0000000), wk =   0.0645161
        k(   16) = (   0.2500000   0.0000000   0.0000000), wk =   0.0645161
        k(   17) = (   0.2666667   0.0000000   0.0000000), wk =   0.0645161
        k(   18) = (   0.2833333   0.0000000   0.0000000), wk =   0.0645161
        k(   19) = (   0.3000000   0.0000000   0.0000000), wk =   0.0645161
        k(   20) = (   0.3166667   0.0000000   0.0000000), wk =   0.0645161
        k(   21) = (   0.3333333   0.0000000   0.0000000), wk =   0.0645161
        k(   22) = (   0.3500000   0.0000000   0.0000000), wk =   0.0645161
        k(   23) = (   0.3666667   0.0000000   0.0000000), wk =   0.0645161
        k(   24) = (   0.3833333   0.0000000   0.0000000), wk =   0.0645161
        k(   25) = (   0.4000000   0.0000000   0.0000000), wk =   0.0645161
        k(   26) = (   0.4166667   0.0000000   0.0000000), wk =   0.0645161
        k(   27) = (   0.4333333   0.0000000   0.0000000), wk =   0.0645161
        k(   28) = (   0.4500000   0.0000000   0.0000000), wk =   0.0645161
        k(   29) = (   0.4666667   0.0000000   0.0000000), wk =   0.0645161
        k(   30) = (   0.4833333   0.0000000   0.0000000), wk =   0.0645161
        k(   31) = (   0.5000000   0.0000000   0.0000000), wk =   0.0645161

     Dense  grid:  2295449 G-vectors     FFT dimensions: (  30, 720, 240)

     Smooth grid:   681651 G-vectors     FFT dimensions: (  20, 480, 160)

     Estimated max dynamical RAM per process >    2036.11Mb

     The potential is recalculated from file :
     ./ZGNR15.save/charge-density.dat


     negative rho (up, down):  3.053E-04 0.000E+00
     Starting wfc are  122 randomized atomic wfcs
     Checking if some PAW data can be deallocated... 

     Band Structure Calculation
     Davidson diagonalization with overlap
     c_bands:  1 eigenvalues not converged
     c_bands:  1 eigenvalues not converged
     c_bands:  1 eigenvalues not converged
     c_bands:  1 eigenvalues not converged
     c_bands:  1 eigenvalues not converged
     c_bands:  1 eigenvalues not converged
     c_bands:  1 eigenvalues not converged
     c_bands:  1 eigenvalues not converged
     c_bands:  2 eigenvalues not converged
     c_bands:  3 eigenvalues not converged
     c_bands:  1 eigenvalues not converged
     c_bands:  2 eigenvalues not converged
     c_bands:  1 eigenvalues not converged
     c_bands:  1 eigenvalues not converged
     c_bands:  3 eigenvalues not converged
     c_bands:  4 eigenvalues not converged
     c_bands:  2 eigenvalues not converged
     c_bands:  3 eigenvalues not converged
     c_bands:  2 eigenvalues not converged
     c_bands:  2 eigenvalues not converged
     c_bands:  3 eigenvalues not converged
     c_bands:  3 eigenvalues not converged
     c_bands:  2 eigenvalues not converged
     c_bands:  1 eigenvalues not converged
     c_bands:  2 eigenvalues not converged
     c_bands:  1 eigenvalues not converged

     ethr =  8.20E-10,  avg # of iterations =116.2

     total cpu time spent up to now is    24085.4 secs

     End of band structure calculation

          k = 0.0000 0.0000 0.0000 ( 85433 PWs)   bands (ev):

   -22.6067 -22.5202 -22.3874 -22.2083 -21.9817 -21.7085 -21.3886 -21.0230
   -20.6130 -20.1601 -19.6669 -19.1382 -18.5832 -18.0269 -17.5547 -16.1041
   -15.5409 -14.8506 -14.1006 -13.3155 -12.5095 -11.6935 -10.8785 -10.6839
   -10.5839 -10.4292 -10.2202 -10.0764  -9.9566  -9.6403  -9.4742  -9.3879
    -9.3006  -9.2728  -9.2571  -9.0834  -8.8677  -8.8571  -8.6144  -8.5663
    -8.3974  -8.3272  -8.0131  -7.8999  -7.8899  -7.6807  -7.3742  -7.3412
    -7.2904  -7.0086  -6.8368  -6.7884  -6.7014  -6.4391  -6.4093  -6.3147
    -6.2438  -6.1792  -6.1354  -5.8560  -5.5361  -1.2225  -0.8297  -0.2669
     0.1857   0.2328   0.2782   0.3554   0.3846   0.4909   0.6676   0.6841
     0.8507   0.8562   0.9070   0.9149   0.9738   0.9960   1.0515   1.0560
     1.0723   1.0754   1.1320   1.1921   1.1967   1.2788   1.2922   1.2942
     1.3425   1.3599

          k = 0.0167 0.0000 0.0000 ( 85405 PWs)   bands (ev):

   -22.6017 -22.5152 -22.3825 -22.2034 -21.9768 -21.7036 -21.3837 -21.0182
   -20.6082 -20.1553 -19.6621 -19.1336 -18.5787 -18.0224 -17.5504 -16.0999
   -15.5369 -14.8469 -14.0972 -13.3125 -12.5071 -11.6918 -10.8777 -10.6779
   -10.5780 -10.4233 -10.2144 -10.0769  -9.9507  -9.6345  -9.4965  -9.4102
    -9.3029  -9.2793  -9.2670  -9.1053  -8.8897  -8.8514  -8.6358  -8.5710
    -8.3917  -8.3476  -8.0351  -7.8953  -7.8942  -7.7006  -7.3686  -7.3591
    -7.3016  -7.0231  -6.8312  -6.8109  -6.7064  -6.4739  -6.4035  -6.3090
    -6.2671  -6.1859  -6.1553  -5.8502  -5.5301  -1.2238  -0.8309  -0.2680
     0.1924   0.2392   0.2845   0.3618   0.3842   0.4975   0.6744   0.6907
     0.8558   0.8629   0.9134   0.9216   0.9803   1.0028   1.0584   1.0621
     1.0791   1.0819   1.1388   1.1963   1.2036   1.2854   1.2990   1.3009
     1.3471   1.3667

          k = 0.0333 0.0000 0.0000 ( 85421 PWs)   bands (ev):

   -22.5869 -22.5004 -22.3677 -22.1886 -21.9620 -21.6889 -21.3691 -21.0037
   -20.5937 -20.1410 -19.6480 -19.1197 -18.5650 -18.0091 -17.5375 -16.0875
   -15.5250 -14.8358 -14.0871 -13.3037 -12.4999 -11.6868 -10.8756 -10.6602
   -10.5603 -10.4057 -10.1967 -10.0786  -9.9332  -9.6171  -9.5628  -9.4763
    -9.3451  -9.3105  -9.2497  -9.1699  -8.9547  -8.8342  -8.6993  -8.5868
    -8.4069  -8.3746  -8.0988  -7.9143  -7.8773  -7.7591  -7.4113  -7.3517
    -7.3377  -7.0640  -6.8748  -6.8142  -6.7245  -6.5492  -6.4148  -6.3315
    -6.2918  -6.2141  -6.2105  -5.8327  -5.5122  -1.2278  -0.8346  -0.2713
     0.2124   0.2586   0.3033   0.3809   0.3826   0.5172   0.6948   0.7107
     0.8707   0.8830   0.9328   0.9418   0.9999   1.0234   1.0790   1.0803
     1.0996   1.1016   1.1593   1.2085   1.2242   1.3051   1.3194   1.3210
     1.3612   1.3872

          k = 0.0500 0.0000 0.0000 ( 85419 PWs)   bands (ev):

   -22.5622 -22.4757 -22.3430 -22.1640 -21.9375 -21.6645 -21.3447 -20.9795
   -20.5697 -20.1172 -19.6245 -19.0965 -18.5423 -17.9869 -17.5160 -16.0668
   -15.5052 -14.8173 -14.0703 -13.2892 -12.4882 -11.6787 -10.8725 -10.6306
   -10.5308 -10.3762 -10.1674 -10.0823  -9.9040  -9.6710  -9.5881  -9.5844
    -9.4526  -9.3286  -9.2718  -9.2209  -9.0606  -8.8056  -8.8024  -8.6211
    -8.4977  -8.3462  -8.1999  -7.9521  -7.8525  -7.8490  -7.4924  -7.4047
    -7.3235  -7.1239  -6.9747  -6.7860  -6.7598  -6.6552  -6.4520  -6.4299
    -6.3076  -6.2633  -6.2565  -5.8035  -5.4824  -1.2349  -0.8411  -0.2773
     0.2458   0.2908   0.3347   0.3792   0.4127   0.5499   0.7289   0.7440
     0.8943   0.9165   0.9650   0.9754   1.0326   1.0576   1.1098   1.1133
     1.1338   1.1344   1.1934   1.2284   1.2586   1.3381   1.3534   1.3544
     1.3861   1.4214

          k = 0.0667 0.0000 0.0000 ( 85331 PWs)   bands (ev):

   -22.5277 -22.4412 -22.3085 -22.1296 -21.9032 -21.6302 -21.3107 -20.9456
   -20.5361 -20.0839 -19.5915 -19.0640 -18.5104 -17.9558 -17.4858 -16.0379
   -15.4777 -14.7917 -14.0471 -13.2691 -12.4723 -11.6683 -10.8694 -10.5892
   -10.4895 -10.3350 -10.1264 -10.0897  -9.8632  -9.8184  -9.7314  -9.5986
    -9.5475  -9.4292  -9.3388  -9.2039  -9.1806  -8.9406  -8.7656  -8.7017
    -8.5924  -8.3337  -8.3065  -8.0161  -7.9747  -7.8096  -7.5942  -7.5082
    -7.2842  -7.1965  -7.1050  -6.8174  -6.7873  -6.7466  -6.5543  -6.5241
    -6.4224  -6.3239  -6.2234  -5.7628  -5.4406  -1.2455  -0.8511  -0.2867
     0.2925   0.3358   0.3727   0.3785   0.4573   0.5958   0.7766   0.7906
     0.9240   0.9634   1.0102   1.0224   1.0786   1.1056   1.1489   1.1614
     1.1805   1.1816   1.2412   1.2564   1.3068   1.3841   1.4010   1.4011
     1.4238   1.4693

          k = 0.0833 0.0000 0.0000 ( 85357 PWs)   bands (ev):

   -22.4832 -22.3968 -22.2642 -22.0854 -21.8590 -21.5863 -21.2669 -20.9021
   -20.4929 -20.0411 -19.5492 -19.0223 -18.4695 -17.9159 -17.4471 -16.0011
   -15.4425 -14.7590 -14.0177 -13.2440 -12.4528 -11.6563 -10.8677 -10.5361
   -10.4364 -10.2822 -10.1038 -10.0737 -10.0009  -9.9135  -9.8108  -9.7789
    -9.6058  -9.4954  -9.3809  -9.3794  -9.1289  -9.1066  -8.8500  -8.7143
    -8.6713  -8.4943  -8.2556  -8.1175  -8.1143  -7.7590  -7.7077  -7.6460
    -7.2848  -7.2576  -7.2337  -6.9357  -6.9091  -6.6960  -6.6893  -6.6560
    -6.5285  -6.4117  -6.1723  -5.7105  -5.3870  -1.2606  -0.8654  -0.3005
     0.3524   0.3616   0.3934   0.4346   0.5146   0.6547   0.8379   0.8504
     0.9547   1.0237   1.0682   1.0828   1.1377   1.1672   1.1952   1.2232
     1.2400   1.2431   1.2966   1.3026   1.3687   1.4430   1.4612   1.4621
     1.4758   1.5308

          k = 0.1000 0.0000 0.0000 ( 85265 PWs)   bands (ev):

   -22.4290 -22.3426 -22.2100 -22.0313 -21.8051 -21.5325 -21.2134 -20.8489
   -20.4401 -19.9888 -19.4975 -18.9714 -18.4195 -17.8671 -17.3998 -15.9565
   -15.4000 -14.7196 -13.9825 -13.2143 -12.4305 -11.6442 -10.8700 -10.4712
   -10.3717 -10.2176 -10.2156 -10.1301 -10.1265 -10.0095  -9.9872  -9.8141
    -9.7469  -9.5834  -9.4550  -9.4319  -9.2825  -9.0658  -9.0376  -8.7661
    -8.6743  -8.6517  -8.2720  -8.2492  -8.1935  -7.8329  -7.8067  -7.6973
    -7.4186  -7.4047  -7.1723  -7.0828  -7.0532  -6.8401  -6.8122  -6.6345
    -6.6278  -6.5189  -6.1100  -5.6468  -5.3216  -1.2810  -0.8849  -0.3197
     0.3443   0.4255   0.4634   0.5029   0.5846   0.7268   0.9128   0.9235
     0.9781   1.0974   1.1388   1.1565   1.2102   1.2426   1.2481   1.2988
     1.3126   1.3182   1.3544   1.3777   1.4443   1.5142   1.5345   1.5368
     1.5431   1.6060

          k = 0.1167 0.0000 0.0000 ( 85289 PWs)   bands (ev):

   -22.3649 -22.2785 -22.1461 -21.9675 -21.7415 -21.4691 -21.1503 -20.7861
   -20.3778 -19.9270 -19.4365 -18.9113 -18.3605 -17.8096 -17.3439 -15.9044
   -15.3505 -14.6740 -13.9421 -13.1811 -12.4069 -11.6342 -10.8803 -10.4558
   -10.3947 -10.3656 -10.2953 -10.2416 -10.1568 -10.1414 -10.0471  -9.9336
    -9.8060  -9.6715  -9.6065  -9.4300  -9.3570  -9.2468  -8.9915  -8.8942
    -8.8654  -8.5779  -8.4352  -8.4107  -8.1204  -7.9841  -7.9729  -7.6247
    -7.5724  -7.5697  -7.2467  -7.2139  -7.1000  -7.0510  -6.9200  -6.7366
    -6.6444  -6.5620  -6.0367  -5.5717  -5.2444  -1.3079  -0.9109  -0.3458
     0.3188   0.5116   0.5454   0.5834   0.6676   0.8119   0.9850   1.0014
     1.0098   1.1845   1.2215   1.2435   1.2956   1.3125   1.3316   1.3880
     1.3982   1.4069   1.4319   1.4664   1.5337   1.5960   1.6210   1.6250
     1.6255   1.6948

          k = 0.1333 0.0000 0.0000 ( 85273 PWs)   bands (ev):

   -22.2910 -22.2047 -22.0723 -21.8939 -21.6681 -21.3960 -21.0775 -20.7137
   -20.3059 -19.8559 -19.3662 -18.8420 -18.2926 -17.7433 -17.2795 -15.8452
   -15.2944 -14.6226 -13.8974 -13.1454 -12.3841 -11.6300 -10.9059 -10.7183
   -10.6256 -10.4920 -10.3065 -10.2986 -10.2473 -10.2073 -10.0537 -10.0319
    -9.8463  -9.8235  -9.5847  -9.5636  -9.4674  -9.2708  -9.0627  -9.0526
    -8.9060  -8.6159  -8.5798  -8.4932  -8.1738  -8.1266  -8.0363  -7.7805
    -7.7037  -7.5413  -7.4648  -7.3594  -7.2509  -7.0260  -7.0170  -6.8590
    -6.7872  -6.4789  -5.9525  -5.4854  -5.1555  -1.3427  -0.9447  -0.3803
     0.2832   0.6105   0.6391   0.6760   0.7635   0.9101   0.9697   1.1036
     1.1092   1.2850   1.3142   1.3438   1.3933   1.3938   1.4344   1.4910
     1.4956   1.5093   1.5274   1.5688   1.6368   1.6816   1.7206   1.7225
     1.7269   1.7974

          k = 0.1500 0.0000 0.0000 ( 85215 PWs)   bands (ev):

   -22.2073 -22.1211 -21.9888 -21.8106 -21.5850 -21.3132 -20.9951 -20.6318
   -20.2246 -19.7753 -19.2866 -18.7636 -18.2157 -17.6682 -17.2065 -15.7794
   -15.2323 -14.5664 -13.8495 -13.1094 -12.3654 -11.6376 -10.9985 -10.9656
   -10.8950 -10.7645 -10.5608 -10.4104 -10.2264 -10.2068 -10.1078 -10.0631
    -9.9546  -9.7477  -9.7197  -9.6921  -9.4866  -9.2685  -9.2247  -9.1734
    -8.8221  -8.8094  -8.7402  -8.3975  -8.3914  -8.2697  -8.0004  -7.9416
    -7.8565  -7.6634  -7.5889  -7.4474  -7.3771  -7.1382  -6.9954  -6.9462
    -6.9236  -6.3853  -5.8578  -5.3881  -5.0549  -1.3869  -0.9880  -0.4249
     0.2357   0.7215   0.7441   0.7809   0.8727   0.9310   1.0215   1.2196
     1.2218   1.3990   1.4096   1.4573   1.4929   1.5014   1.5509   1.6008
     1.6078   1.6252   1.6386   1.6848   1.7453   1.7537   1.8334   1.8334
     1.8423   1.8820

          k = 0.1667 0.0000 0.0000 ( 85223 PWs)   bands (ev):

   -22.1139 -22.0277 -21.8956 -21.7175 -21.4922 -21.2207 -20.9031 -20.5403
   -20.1338 -19.6854 -19.1978 -18.6762 -18.1300 -17.5845 -17.1251 -15.7078
   -15.1651 -14.5065 -13.8005 -13.0762 -12.3563 -11.6668 -11.2917 -11.2012
   -11.0481 -11.0477 -10.8192 -10.6456 -10.3954 -10.3082 -10.0956  -9.9969
    -9.9186  -9.8955  -9.8441  -9.6377  -9.4860  -9.3970  -9.3774  -9.0650
    -9.0406  -8.9029  -8.7020  -8.6009  -8.4488  -8.2912  -8.1789  -8.0838
    -7.8569  -7.8363  -7.7915  -7.4793  -7.3431  -7.2596  -7.1455  -7.1201
    -6.8200  -6.2816  -5.7527  -5.2800  -4.9429  -1.4420  -1.0421  -0.4811
     0.1744   0.8437   0.8596   0.8698   0.8988   0.9952   1.1461   1.3476
     1.3492   1.4758   1.5264   1.5840   1.6077   1.6161   1.6812   1.7019
     1.7382   1.7547   1.7640   1.8005   1.8146   1.8843   1.9562   1.9593
     1.9713   1.9821

          k = 0.1833 0.0000 0.0000 ( 85223 PWs)   bands (ev):

   -22.0107 -21.9247 -21.7927 -21.6148 -21.3898 -21.1187 -20.8015 -20.4394
   -20.0337 -19.5862 -19.0998 -18.5798 -18.0355 -17.4923 -17.0352 -15.6316
   -15.0942 -14.4449 -13.7532 -13.0509 -12.3656 -11.7333 -11.5929 -11.4971
   -11.3339 -11.2272 -11.0468 -10.9014 -10.5771 -10.5505 -10.1442 -10.0823
    -9.9731  -9.8746  -9.7223  -9.6998  -9.5853  -9.5166  -9.2571  -9.2312
    -9.1141  -8.9458  -8.7506  -8.6958  -8.5839  -8.3554  -8.2919  -8.1743
    -8.1352  -7.8819  -7.7208  -7.5818  -7.3910  -7.3095  -7.3069  -7.2288
    -6.7065  -6.1681  -5.6377  -5.1613  -4.8196  -1.5097  -1.1087  -0.5505
     0.0977   0.7865   0.9754   0.9853   1.0309   1.1314   1.2840   1.4534
     1.4865   1.4926   1.6674   1.7238   1.7335   1.7418   1.8155   1.8251
     1.8824   1.8979   1.9014   1.9147   1.9580   2.0286   2.0812   2.0983
     2.1139   2.1143

          k = 0.2000 0.0000 0.0000 ( 85175 PWs)   bands (ev):

   -21.8979 -21.8119 -21.6801 -21.5025 -21.2778 -21.0071 -20.6904 -20.3290
   -19.9241 -19.4778 -18.9928 -18.4744 -17.9323 -17.3916 -16.9369 -15.5521
   -15.0214 -14.3844 -13.7125 -13.0419 -12.4072 -11.9066 -11.8471 -11.7967
   -11.6118 -11.4711 -11.2486 -11.1552 -10.7834 -10.7769 -10.3531 -10.2935
    -9.8726  -9.8393  -9.8221  -9.7412  -9.5894  -9.3845  -9.3794  -9.3566
    -9.1259  -8.9765  -8.8456  -8.8158  -8.6353  -8.4618  -8.4553  -8.3312
    -8.0473  -7.9635  -7.6896  -7.5953  -7.5327  -7.5080  -7.4834  -7.1048
    -6.5836  -6.0454  -5.5133  -5.0326  -4.6850  -1.5915  -1.1891  -0.6345
     0.0044   0.6815   1.1148   1.1203   1.1784   1.2815   1.3573   1.4353
     1.6385   1.6497   1.8220   1.8506   1.8768   1.8864   1.9590   1.9829
     2.0339   2.0402   2.0545   2.0619   2.1151   2.1357   2.1866   2.2503
     2.2638   2.2702

          k = 0.2167 0.0000 0.0000 ( 85145 PWs)   bands (ev):

   -21.7754 -21.6896 -21.5580 -21.3806 -21.1562 -20.8860 -20.5699 -20.2092
   -19.8053 -19.3602 -18.8768 -18.3604 -17.8206 -17.2825 -16.8302 -15.4719
   -14.9499 -14.3297 -13.6863 -13.0622 -12.4978 -12.2093 -12.0922 -12.0404
   -11.8662 -11.7287 -11.4603 -11.3946 -11.0037 -10.9903 -10.5459 -10.5147
   -10.0980  -9.9842  -9.6945  -9.6648  -9.5967  -9.4472  -9.4456  -9.2500
    -9.2415  -9.0038  -8.9841  -8.8292  -8.7533  -8.6753  -8.4000  -8.3165
    -8.0451  -7.9103  -7.8042  -7.7195  -7.6842  -7.6694  -7.4602  -6.9716
    -6.4518  -5.9139  -5.3801  -4.8944  -4.5396  -1.6888  -1.2844  -0.7339
    -0.1063   0.5552   1.2202   1.2609   1.2642   1.3416   1.4454   1.5999
     1.8037   1.8206   1.8418   1.9902   2.0427   2.0456   2.1179   2.1198
     2.1544   2.2118   2.2247   2.2248   2.2472   2.2860   2.3583   2.4154
     2.4175   2.4398

          k = 0.2333 0.0000 0.0000 ( 85085 PWs)   bands (ev):

   -21.6434 -21.5576 -21.4262 -21.2491 -21.0251 -20.7554 -20.4400 -20.0802
   -19.6773 -19.2336 -18.7519 -18.2376 -17.7005 -17.1653 -16.7154 -15.3944
   -14.8843 -14.2885 -13.6872 -13.1293 -12.6489 -12.5084 -12.3752 -12.2801
   -12.1016 -11.9738 -11.6952 -11.6042 -11.2621 -11.1500 -10.8229 -10.6277
   -10.3756 -10.1004  -9.9038  -9.6491  -9.5386  -9.4413  -9.3890  -9.2910
    -9.2909  -9.0878  -9.0581  -8.8850  -8.8318  -8.5247  -8.4558  -8.1677
    -8.1300  -7.9407  -7.9269  -7.8650  -7.8450  -7.7637  -7.3160  -6.8297
    -6.3118  -5.7747  -5.2390  -4.7474  -4.3836  -1.8025  -1.3950  -0.8491
    -0.2345   0.4084   1.0543   1.4138   1.4163   1.5200   1.6233   1.6833
     1.7780   1.9820   2.0052   2.1720   2.1847   2.2217   2.2679   2.2765
     2.3396   2.3653   2.3970   2.4086   2.4219   2.4518   2.4706   2.5437
     2.5934   2.6155

          k = 0.2500 0.0000 0.0000 ( 85013 PWs)   bands (ev):

   -21.5018 -21.4162 -21.2850 -21.1082 -20.8846 -20.6154 -20.3007 -19.9419
   -19.5402 -19.0980 -18.6183 -18.1065 -17.5723 -17.0403 -16.5923 -15.3254
   -14.8325 -14.2729 -13.7331 -13.2572 -12.8558 -12.7936 -12.6376 -12.5283
   -12.3390 -12.1927 -11.9488 -11.7753 -11.5269 -11.2900 -11.0682 -10.8053
   -10.5443 -10.3583  -9.9754  -9.9484  -9.5983  -9.4303  -9.3719  -9.3540
    -9.2752  -9.1256  -8.9238  -8.9156  -8.6693  -8.5103  -8.3641  -8.2201
    -8.1705  -8.0763  -8.0503  -8.0144  -8.0095  -7.6081  -7.1633  -6.6799
    -6.1645  -5.6286  -5.0912  -4.5927  -4.2176  -1.9331  -1.5209  -0.9796
    -0.3794   0.2424   0.8651   1.4761   1.5735   1.5759   1.7129   1.8152
     1.9697   2.0588   2.1735   2.2036   2.3675   2.4137   2.4320   2.4387
     2.5145   2.5386   2.5959   2.5988   2.6059   2.6178   2.6690   2.6899
     2.7425   2.7845

          k = 0.2667 0.0000 0.0000 ( 84929 PWs)   bands (ev):

   -21.3507 -21.2652 -21.1343 -20.9578 -20.7347 -20.4661 -20.1523 -19.7944
   -19.3941 -18.9536 -18.4761 -17.9671 -17.4364 -16.9078 -16.4614 -15.2736
   -14.8065 -14.3004 -13.8403 -13.4459 -13.0998 -13.0544 -12.8740 -12.7716
   -12.5675 -12.3999 -12.1756 -11.9733 -11.7091 -11.5333 -11.1624 -11.0967
   -10.6677 -10.5715 -10.2591  -9.9998  -9.8877  -9.6878  -9.4126  -9.1946
    -9.0985  -8.9499  -8.9402  -8.7495  -8.5668  -8.4969  -8.4078  -8.3170
    -8.2862  -8.1940  -8.1917  -8.1888  -7.8421  -7.4439  -7.0027  -6.5230
    -6.0111  -5.4772  -4.9386  -4.4321  -4.0422  -2.0804  -1.6608  -1.1239
    -0.5396   0.0595   0.6568   1.2437   1.7400   1.7423   1.8134   1.9198
     2.0208   2.1748   2.3515   2.3782   2.4158   2.5767   2.6186   2.6337
     2.6866   2.7095   2.7514   2.8084   2.8118   2.8167   2.8333   2.8811
     2.9283   2.9547

          k = 0.2833 0.0000 0.0000 ( 84887 PWs)   bands (ev):

   -21.1903 -21.1050 -20.9742 -20.7981 -20.5755 -20.3077 -19.9947 -19.6380
   -19.2392 -18.8007 -18.3257 -17.8200 -17.2933 -16.7687 -16.3230 -15.2523
   -14.8229 -14.3884 -14.0125 -13.6816 -13.3667 -13.2777 -13.0702 -13.0316
   -12.7367 -12.6575 -12.2934 -12.2556 -11.8378 -11.7573 -11.4087 -11.1721
   -10.9723 -10.6316 -10.4945 -10.2461  -9.9981  -9.9358  -9.4097  -9.0069
    -8.9635  -8.9115  -8.7641  -8.6512  -8.6273  -8.5654  -8.5057  -8.4282
    -8.3654  -8.3335  -8.3149  -8.0148  -7.6662  -7.2719  -6.8352  -6.3603
    -5.8530  -5.3226  -4.7836  -4.2684  -3.8590  -2.2431  -1.8120  -1.2792
    -0.7120  -0.1373   0.4331   0.9941   1.5422   1.9126   1.9150   2.0726
     2.1404   2.2402   2.3934   2.5724   2.5960   2.6417   2.7995   2.8364
     2.8722   2.8776   2.9504   2.9779   3.0345   3.0361   3.0410   3.0543
     3.0902   3.1070

          k = 0.3000 0.0000 0.0000 ( 84855 PWs)   bands (ev):

   -21.0205 -20.9353 -20.8049 -20.6292 -20.4072 -20.1400 -19.8280 -19.4726
   -19.0756 -18.6393 -18.1674 -17.6658 -17.1441 -16.6244 -16.1777 -15.2776
   -14.8977 -14.5423 -14.2370 -13.9487 -13.6527 -13.4498 -13.3167 -13.2050
   -12.9526 -12.8216 -12.5591 -12.3306 -12.1362 -11.8081 -11.6546 -11.3444
   -11.0786 -10.9228 -10.5573 -10.4802 -10.3072  -9.9074  -9.4015  -8.9880
    -8.8996  -8.8091  -8.7327  -8.7145  -8.6923  -8.5873  -8.5685  -8.5046
    -8.4816  -8.3717  -8.1239  -7.8270  -7.4825  -7.0930  -6.6618  -6.1932
    -5.6923  -5.1674  -4.6302  -4.1061  -3.6701  -2.4183  -1.9694  -1.4408
    -0.8928  -0.3442   0.1982   0.7325   1.2574   1.7701   2.0907   2.0932
     2.2645   2.3745   2.4733   2.6255   2.7283   2.8270   2.8814   3.0360
     3.0669   3.0803   3.1373   3.1457   3.2075   3.2181   3.2741   3.2788
     3.2833   3.3150

          k = 0.3167 0.0000 0.0000 ( 84825 PWs)   bands (ev):

   -20.8415 -20.7565 -20.6264 -20.4511 -20.2297 -19.9634 -19.6525 -19.2986
   -18.9036 -18.4701 -18.0018 -17.5053 -16.9905 -16.4779 -16.0274 -15.3616
   -15.0340 -14.7499 -14.4953 -14.2352 -13.9529 -13.6497 -13.5193 -13.3304
   -13.1929 -12.9424 -12.7567 -12.5206 -12.2274 -12.0889 -11.6559 -11.6363
   -11.2371 -11.0284 -10.8646 -10.6229 -10.4192  -9.8697  -9.3916  -9.1518
    -9.0156  -8.9625  -8.7795  -8.7692  -8.6306  -8.6210  -8.6013  -8.5077
    -8.3633  -8.1689  -7.9242  -7.6313  -7.2917  -6.9082  -6.4842  -6.0237
    -5.5320  -5.0159  -4.4843  -3.9538  -3.4802  -2.6001  -2.1237  -1.6015
    -1.0762  -0.5563  -0.0434   0.4636   0.9648   1.4583   1.9390   2.2737
     2.2763   2.3978   2.6220   2.7199   2.8191   2.8711   3.0712   3.1348
     3.1790   3.2860   3.3101   3.3484   3.3963   3.4185   3.4720   3.5013
     3.5269   3.5303

          k = 0.3333 0.0000 0.0000 ( 84816 PWs)   bands (ev):

   -20.6534 -20.5686 -20.4388 -20.2641 -20.0433 -19.7780 -19.4684 -19.1162
   -18.7235 -18.2933 -17.8299 -17.3403 -16.8360 -16.3370 -15.8776 -15.5004
   -15.2135 -14.9893 -14.7719 -14.5322 -14.2608 -13.9561 -13.6180 -13.5481
   -13.2390 -13.2071 -12.8311 -12.7276 -12.4036 -12.1676 -11.9662 -11.6010
   -11.5072 -11.1916 -10.9338 -10.9279 -10.3554  -9.8277  -9.4068  -9.3821
    -9.1966  -9.0507  -8.9776  -8.8699  -8.7650  -8.7380  -8.3839  -8.2915
    -8.1491  -7.9574  -7.7164  -7.4284  -7.0949  -6.7190  -6.3041  -5.8547
    -5.3758  -4.8738  -4.3554  -3.8283  -3.2996  -2.7763  -2.2574  -1.7502
    -1.2545  -0.7675  -0.2864   0.1921   0.6690   1.1427   1.6083   2.0564
     2.4608   2.4634   2.4724   2.8374   2.8829   2.9799   3.1260   3.1300
     3.3098   3.3283   3.4019   3.5496   3.5656   3.6193   3.6527   3.7039
     3.7394   3.7931

          k = 0.3500 0.0000 0.0000 ( 84842 PWs)   bands (ev):

   -20.4563 -20.3717 -20.2423 -20.0681 -19.8481 -19.5839 -19.2758 -18.9257
   -18.5359 -18.1100 -17.6531 -17.1742 -16.6889 -16.2271 -15.7557 -15.6632
   -15.3856 -15.2362 -15.0534 -14.8321 -14.5707 -14.2709 -13.9340 -13.5760
   -13.4851 -13.1963 -13.0927 -12.7560 -12.6038 -12.3094 -12.0402 -11.8788
   -11.4964 -11.4425 -11.2300 -10.8460 -10.2839  -9.7835  -9.6635  -9.4345
    -9.3737  -9.1921  -9.0817  -9.0108  -8.8684  -8.8554  -8.1573  -8.0662
    -7.9262  -7.7379  -7.5015  -7.2194  -6.8934  -6.5271  -6.1243  -5.6897
    -5.2292  -4.7496  -4.2581  -3.7616  -3.1507  -2.9229  -2.3375  -1.8704
    -1.4169  -0.9701  -0.5249  -0.0772   0.3741   0.8272   1.2766   1.7127
     2.1200   2.4787   2.6511   2.6538   2.7617   2.9388   3.1569   3.2532
     3.4022   3.5985   3.6826   3.8263   3.8330   3.8934   3.9255   3.9795
     4.0202   4.0704

          k = 0.3667 0.0000 0.0000 ( 84882 PWs)   bands (ev):

   -20.2503 -20.1660 -20.0370 -19.8634 -19.6444 -19.3814 -19.0751 -18.7275
   -18.3416 -17.9215 -17.4744 -17.0143 -16.5714 -16.2276 -15.7823 -15.7754
   -15.4477 -15.4185 -15.3116 -15.1271 -14.8775 -14.5843 -14.2503 -13.8818
   -13.4829 -13.4047 -13.0559 -13.0162 -12.6167 -12.5022 -12.1849 -11.9299
   -11.7953 -11.5324 -11.3271 -10.7476 -10.2080  -9.9209  -9.7391  -9.6726
    -9.4000  -9.3712  -9.1735  -9.1362  -8.9682  -8.9564  -7.9218  -7.8324
    -7.6952  -7.5110  -7.2801  -7.0054  -6.6890  -6.3350  -5.9480  -5.5338
    -5.0997  -4.6550  -4.2121  -3.7961  -3.0660  -3.0091  -2.3172  -1.9394
    -1.5494  -1.1543  -0.7516  -0.3388   0.0845   0.5155   0.9476   1.3704
     1.7675   2.1184   2.3950   2.5670   2.8437   2.8465   3.4441   3.5397
     3.6875   3.8812   3.9767   4.1111   4.1154   4.1814   4.2138   4.2697
     4.3131   4.3549

          k = 0.3833 0.0000 0.0000 ( 84890 PWs)   bands (ev):

   -20.0356 -19.9516 -19.8230 -19.6502 -19.4322 -19.1708 -18.8667 -18.5224
   -18.1416 -17.7304 -17.3002 -16.8789 -16.5410 -16.3937 -15.8898 -15.8836
   -15.5829 -15.5294 -15.3856 -15.2644 -15.1606 -14.8918 -14.5623 -14.1951
   -13.7951 -13.3759 -13.2684 -12.9481 -12.8594 -12.5035 -12.3511 -12.1051
   -11.8257 -11.7857 -11.2051 -10.6429 -10.1782 -10.1296  -9.9120  -9.6975
    -9.6098  -9.3889  -9.3296  -9.2159  -9.0619  -9.0419  -7.6779  -7.5905
    -7.4567  -7.2775  -7.0536  -6.7881  -6.4839  -6.1458  -5.7798  -5.3935
    -4.9969  -4.6040  -4.2362  -3.9379  -3.0462  -3.0392  -2.1851  -1.9350
    -1.6352  -1.3080  -0.9579  -0.5860  -0.1947   0.2113   0.6241   1.0321
     1.4180   1.7601   2.0299   2.1972   3.0376   3.0404   3.7443   3.8391
     3.9857   4.1761   4.2838   4.3955   4.4141   4.4823   4.5159   4.5735
     4.5854   4.5890

          k = 0.4000 0.0000 0.0000 ( 84898 PWs)   bands (ev):

   -19.8124 -19.7287 -19.6007 -19.4287 -19.2121 -18.9525 -18.6513 -18.3115
   -17.9384 -17.5418 -17.1452 -16.8139 -16.6574 -16.6391 -16.0159 -15.9989
   -15.7056 -15.6940 -15.4672 -15.3696 -15.1796 -15.0628 -14.8638 -14.5030
   -14.1034 -13.6777 -13.2368 -13.1209 -12.7968 -12.7202 -12.3977 -12.2060
   -12.1128 -11.6417 -11.0745 -10.5338 -10.4344 -10.1519 -10.0495  -9.8280
    -9.6518  -9.5349  -9.3707  -9.3268  -9.1317  -9.1244  -7.4261  -7.3412
    -7.2115  -7.0385  -6.8232  -6.5694  -6.2809  -5.9637  -5.6258  -5.2775
    -4.9326  -4.6099  -4.3361  -4.1484  -3.0533  -3.0495  -1.9805  -1.8494
    -1.6581  -1.4170  -1.1328  -0.8110  -0.4578  -0.0809   0.3097   0.7007
     1.0735   1.4058   1.6683   1.8307   3.2315   3.2344   4.0573   4.1514
     4.2961   4.4799   4.5901   4.5964   4.6072   4.6955   4.7209   4.7954
     4.8309   4.8953

          k = 0.4167 0.0000 0.0000 ( 84958 PWs)   bands (ev):

   -19.5808 -19.4975 -19.3702 -19.1993 -18.9843 -18.7272 -18.4298 -18.0967
   -17.7363 -17.3679 -17.0468 -16.9108 -16.8833 -16.8755 -16.1410 -16.1077
   -15.8678 -15.7875 -15.5566 -15.4996 -15.1707 -15.1691 -14.8568 -14.8012
   -14.4047 -13.9786 -13.5347 -13.0943 -12.9453 -12.6918 -12.5445 -12.3997
   -12.0379 -11.4878 -10.9379 -10.6888 -10.4217 -10.3901 -10.0413  -9.9707
    -9.7129  -9.6177  -9.4540  -9.3974  -9.1995  -9.1876  -7.1670  -7.0850
    -6.9605  -6.7953  -6.5909  -6.3520  -6.0839  -5.7943  -5.4938  -5.1959
    -4.9178  -4.6791  -4.4998  -4.3947  -3.0638  -3.0598  -1.7380  -1.6962
    -1.6103  -1.4672  -1.2633  -1.0037  -0.6975  -0.3559   0.0081   0.3789
     0.7365   1.0572   1.3114   1.4685   3.4236   3.4267   4.3829   4.4752
     4.5551   4.5970   4.6172   4.7727   4.7938   4.9047   4.9383   5.0586
     5.1055   5.1203

          k = 0.4333 0.0000 0.0000 ( 84990 PWs)   bands (ev):

   -19.3412 -19.2583 -19.1319 -18.9623 -18.7494 -18.4957 -18.2041 -17.8818
   -17.5449 -17.2389 -17.1914 -17.1343 -17.0715 -17.0685 -16.2442 -16.2164
   -15.9918 -15.8605 -15.7222 -15.4977 -15.3558 -15.1168 -14.9541 -14.7138
   -14.6351 -14.2722 -13.8266 -13.3809 -12.9723 -12.7602 -12.6763 -12.3636
   -11.8632 -11.3266 -10.9404 -10.7966 -10.6268 -10.3096 -10.2530  -9.9175
    -9.8698  -9.6273  -9.5515  -9.4480  -9.2549  -9.2395  -6.9012  -6.8229
    -6.7049  -6.5495  -6.3590  -6.1395  -5.8979  -5.6446  -5.3930  -5.1589
    -4.9595  -4.8074  -4.7083  -4.6599  -3.0743  -3.0703  -1.5104  -1.5087
    -1.4662  -1.4399  -1.3318  -1.1502  -0.9037  -0.6067  -0.2759   0.0701
     0.4092   0.7161   0.9605   1.1116   3.6118   3.6149   4.5190   4.5859
     4.7094   4.7254   4.8093   4.9380   4.9574   5.0057   5.1895   5.2597
     5.3368   5.4433

          k = 0.4500 0.0000 0.0000 ( 84972 PWs)   bands (ev):

   -19.0938 -19.0115 -18.8861 -18.7184 -18.5083 -18.2595 -17.9771 -17.6746
   -17.4745 -17.4084 -17.3869 -17.3142 -17.2224 -17.2136 -16.3251 -16.3134
   -16.0374 -16.0128 -15.7365 -15.6278 -15.3784 -15.1883 -14.9794 -14.7577
   -14.5528 -14.4295 -14.1103 -13.6621 -13.2486 -12.9487 -12.5597 -12.1700
   -11.6800 -11.1887 -11.1593 -10.8611 -10.6517 -10.4689 -10.1915 -10.0836
    -9.8115  -9.7541  -9.5454  -9.5245  -9.2905  -9.2860  -6.6294  -6.5559
    -6.4461  -6.3031  -6.1307  -5.9364  -5.7296  -5.5234  -5.3331  -5.1741
    -5.0572  -4.9835  -4.9454  -4.9350  -3.0839  -3.0798  -1.4008  -1.3979
    -1.3043  -1.2863  -1.1950  -1.1835  -1.0546  -0.8217  -0.5352  -0.2211
     0.0946   0.3845   0.6169   0.7607   3.7923   3.7956   4.5010   4.5335
     4.7196   4.8037   5.0707   5.0962   5.1674   5.1919   5.3358   5.5004
     5.5577   5.6867

          k = 0.4667 0.0000 0.0000 ( 84948 PWs)   bands (ev):

   -18.8389 -18.7574 -18.6335 -18.4682 -18.2624 -18.0215 -17.7564 -17.7558
   -17.6826 -17.5767 -17.4934 -17.4472 -17.3279 -17.3182 -16.4069 -16.3541
   -16.1475 -16.0243 -15.8154 -15.6718 -15.3966 -15.2740 -14.9474 -14.8429
   -14.5187 -14.3910 -14.1982 -13.9355 -13.5180 -13.2132 -12.3498 -11.9676
   -11.4900 -11.4325 -11.0920 -10.9874 -10.6797 -10.5046 -10.2661 -10.0786
    -9.8977  -9.7450  -9.6131  -9.5398  -9.3242  -9.3123  -6.3527  -6.2852
    -6.1859  -6.0591  -5.9101  -5.7488  -5.5871  -5.4401  -5.3223  -5.2439
    -5.2203  -5.2114  -5.1919  -5.1875  -3.0913  -3.0872  -1.3463  -1.3454
    -1.2209  -1.2161  -1.0668  -1.0331  -0.9214  -0.8845  -0.7501  -0.4865
    -0.2028   0.0648   0.2821   0.4168   3.9587   3.9624   4.4650   4.5057
     4.6658   4.7585   5.0573   5.1715   5.4359   5.5159   5.6068   5.6597
     5.7351   5.8675

          k = 0.4833 0.0000 0.0000 ( 85012 PWs)   bands (ev):

   -18.5771 -18.4966 -18.3747 -18.2130 -18.0350 -18.0140 -17.9580 -17.8443
   -17.7861 -17.6973 -17.5535 -17.5311 -17.3892 -17.3827 -16.4452 -16.3949
   -16.1929 -16.0423 -15.8876 -15.6421 -15.5072 -15.1978 -15.0830 -14.7361
   -14.6361 -14.2947 -14.1914 -13.9663 -13.7789 -13.4709 -12.1311 -11.7577
   -11.6713 -11.3192 -11.2938 -10.8884 -10.8111 -10.4525 -10.3519 -10.0588
    -9.9524  -9.7483  -9.6459  -9.5570  -9.3426  -9.3296  -6.0719  -6.0122
    -5.9267  -5.8211  -5.7029  -5.5846  -5.5036  -5.4800  -5.4682  -5.4256
    -5.4039  -5.3874  -5.3589  -5.3553  -3.0961  -3.0920  -1.3215  -1.3204
    -1.1825  -1.1817  -0.9962  -0.9844  -0.8017  -0.7532  -0.6337  -0.5740
    -0.4667  -0.2375  -0.0416   0.0808   4.0942   4.1028   4.4088   4.4966
     4.5841   4.7454   5.0037   5.1666   5.5590   5.7294   5.8104   5.9064
     6.0553   6.1568

          k = 0.5000 0.0000 0.0000 ( 84998 PWs)   bands (ev):

   -18.3105 -18.3073 -18.2315 -18.2283 -18.1125 -18.1093 -17.9564 -17.9533
   -17.7685 -17.7656 -17.5677 -17.5653 -17.4079 -17.4057 -16.4386 -16.4352
   -16.1426 -16.1404 -15.7865 -15.7837 -15.3702 -15.3670 -14.9215 -14.9180
   -14.4637 -14.4599 -14.0368 -14.0328 -13.7230 -13.7186 -11.9055 -11.9038
   -11.5419 -11.5401 -11.0941 -11.0922 -10.6331 -10.6313 -10.2047 -10.2031
    -9.8471  -9.8459  -9.5985  -9.5971  -9.3435  -9.3398  -5.7901  -5.7866
    -5.7407  -5.7373  -5.6732  -5.6701  -5.5955  -5.5928  -5.5175  -5.5154
    -5.4546  -5.4528  -5.4151  -5.4121  -3.0977  -3.0936  -1.3139  -1.3136
    -1.1717  -1.1710  -0.9731  -0.9717  -0.7481  -0.7461  -0.5292  -0.5263
    -0.3511  -0.3475  -0.2454  -0.2410   4.1608   4.1642   4.4104   4.4133
     4.6517   4.6525   5.0764   5.0772   5.6404   5.6411   6.1944   6.1948
     6.2665   6.2671

     Writing output data file ZGNR15.save

     init_run     :     20.40s CPU     22.00s WALL (       1 calls)
     electrons    :  23953.04s CPU  24063.14s WALL (       1 calls)

     Called by init_run:
     wfcinit      :      0.00s CPU      0.07s WALL (       1 calls)
     potinit      :      3.47s CPU      3.99s WALL (       1 calls)

     Called by electrons:
     c_bands      :  23953.04s CPU  24063.14s WALL (       1 calls)
     v_of_rho     :      2.05s CPU      2.40s WALL (       1 calls)
     newd         :      7.41s CPU      8.15s WALL (       1 calls)
     PAW_pot      :      1.06s CPU      1.06s WALL (       1 calls)

     Called by c_bands:
     init_us_2    :      1.67s CPU      1.90s WALL (      31 calls)
     cegterg      :  23271.89s CPU  23366.70s WALL (     181 calls)

     Called by sum_band:

     Called by *egterg:
     h_psi        :   9516.02s CPU   9526.73s WALL (    3813 calls)
     s_psi        :   2907.35s CPU   2908.62s WALL (    3813 calls)
     g_psi        :     19.74s CPU     19.78s WALL (    3601 calls)
     cdiaghg      :    177.98s CPU    178.10s WALL (    3632 calls)

     Called by h_psi:
     h_psi:pot    :   9494.32s CPU   9503.62s WALL (    3813 calls)
     h_psi:calbec :   2987.62s CPU   2988.96s WALL (    3813 calls)
     vloc_psi     :   3590.74s CPU   3597.44s WALL (    3813 calls)
     add_vuspsi   :   2915.91s CPU   2917.21s WALL (    3813 calls)

     General routines
     calbec       :   2987.60s CPU   2988.95s WALL (    3813 calls)
     fft          :      1.22s CPU      1.43s WALL (      13 calls)
     ffts         :      0.02s CPU      0.03s WALL (       1 calls)
     fftw         :   2977.27s CPU   2982.10s WALL (  191424 calls)
     interpolate  :      0.14s CPU      0.19s WALL (       1 calls)
     davcio       :      0.23s CPU     11.76s WALL (      31 calls)

     Parallel routines
     fft_scatter  :    361.20s CPU    362.52s WALL (  191438 calls)

     PWSCF        :     6h39m CPU        6h41m WALL


   This run was terminated on:   8: 0: 5   3Apr2019            

=------------------------------------------------------------------------------=
   JOB DONE.
=------------------------------------------------------------------------------=
