
     Program PWSCF v.6.0 (svn rev. 13079) starts on  2Apr2019 at 21:47: 3 

     This program is part of the open-source Quantum ESPRESSO suite
     for quantum simulation of materials; please cite
         "P. Giannozzi et al., J. Phys.:Condens. Matter 21 395502 (2009);
          URL http://www.quantum-espresso.org", 
     in publications or presentations arising from this work. More details at
     http://www.quantum-espresso.org/quote

     Parallel version (MPI), running on     1 processors
     Waiting for input...
     Reading input from standard input

     Current dimensions of program PWSCF are:
     Max number of different atomic species (ntypx) = 10
     Max number of k-points (npk) =  40000
     Max angular momentum in pseudopotentials (lmaxx) =  3
               file C.pbe-n-kjpaw_psl.0.1.UPF: wavefunction(s)  2P renormalized
               file H.pbe-kjpaw_psl.0.1.UPF: wavefunction(s)  1S renormalized

     Subspace diagonalization in iterative solution of the eigenvalue problem:
     a serial algorithm will be used


     G-vector sticks info
     --------------------
     sticks:   dense  smooth     PW     G-vecs:    dense   smooth      PW
     Sum       15077    6747   2075              2295449   681651  115295



     bravais-lattice index     =            0
     lattice parameter (alat)  =       4.6487  a.u.
     unit-cell volume          =   19921.0837 (a.u.)^3
     number of atoms/cell      =           32
     number of atomic types    =            2
     number of electrons       =       122.00
     number of Kohn-Sham states=           90
     kinetic-energy cutoff     =      40.0000  Ry
     charge density cutoff     =     360.0000  Ry
     convergence threshold     =      1.0E-06
     mixing beta               =       0.7000
     number of iterations used =            8  plain     mixing
     Exchange-correlation      =  SLA  PW   PBX  PBC ( 1  4  3  4 0 0)

     celldm(1)=   4.648726  celldm(2)=   0.000000  celldm(3)=   0.000000
     celldm(4)=   0.000000  celldm(5)=   0.000000  celldm(6)=   0.000000

     crystal axes: (cart. coord. in units of alat)
               a(1) = (   1.000000   0.000000   0.000000 )  
               a(2) = (   0.000000  24.390244   0.000000 )  
               a(3) = (   0.000000   0.000000   8.130081 )  

     reciprocal axes: (cart. coord. in units 2 pi/alat)
               b(1) = (  1.000000  0.000000  0.000000 )  
               b(2) = (  0.000000  0.041000  0.000000 )  
               b(3) = (  0.000000  0.000000  0.123000 )  


     PseudoPot. # 1 for  C read from file:
     /mnt/hgfs/Linux_NTNU/QE_docs/PSEUDO_POTENTIALS/C.pbe-n-kjpaw_psl.0.1.UPF
     MD5 check sum: bf2aebf1cd97aced799cfc3ffd9ff9ea
     Pseudo is Projector augmented-wave + core cor, Zval =  4.0
     Generated using "atomic" code by A. Dal Corso  v.5.0.2 svn rev. 9415
     Shape of augmentation charge: BESSEL
     Using radial grid of 1073 points,  4 beta functions with: 
                l(1) =   0
                l(2) =   0
                l(3) =   1
                l(4) =   1
     Q(r) pseudized with 0 coefficients 


     PseudoPot. # 2 for  H read from file:
     /mnt/hgfs/Linux_NTNU/QE_docs/PSEUDO_POTENTIALS/H.pbe-kjpaw_psl.0.1.UPF
     MD5 check sum: fbb168fef676c0aaadbafd73f5b1efa8
     Pseudo is Projector augmented-wave, Zval =  1.0
     Generated using "atomic" code by A. Dal Corso  v.5.0.2 svn rev. 9415
     Shape of augmentation charge: PSQ
     Using radial grid of  929 points,  2 beta functions with: 
                l(1) =   0
                l(2) =   0
     Q(r) pseudized with 0 coefficients 


     atomic species   valence    mass     pseudopotential
        C              4.00    12.01100      C( 1.00)
        H              1.00     1.00000      H( 1.00)

      2 Sym. Ops. (no inversion) found



   Cartesian axes

     site n.     atom                  positions (alat units)
         1           C   tau(   1) = (   0.0000000   0.0000000   0.0000000  )
         2           C   tau(   2) = (   0.4999008   0.2886179   0.0000000  )
         3           C   tau(   3) = (   0.0000000  -0.5772358   0.0000000  )
         4           C   tau(   4) = (   0.4999008  -0.8658537   0.0000000  )
         5           C   tau(   5) = (   0.0000000  -1.7317073   0.0000000  )
         6           C   tau(   6) = (   0.4999008  -1.4430894   0.0000000  )
         7           C   tau(   7) = (   0.0000000  -2.3089431   0.0000000  )
         8           C   tau(   8) = (   0.4999008  -2.5975610   0.0000000  )
         9           C   tau(   9) = (   0.0000000  -3.4634146   0.0000000  )
        10           C   tau(  10) = (   0.4999008  -3.1747967   0.0000000  )
        11           C   tau(  11) = (   0.0000000  -4.0406504   0.0000000  )
        12           C   tau(  12) = (   0.4999008  -4.3292683   0.0000000  )
        13           C   tau(  13) = (   0.0000000  -5.1951220   0.0000000  )
        14           C   tau(  14) = (   0.4999008  -4.9065041   0.0000000  )
        15           C   tau(  15) = (   0.0000000  -5.7723577   0.0000000  )
        16           C   tau(  16) = (   0.4999008  -6.0609756   0.0000000  )
        17           C   tau(  17) = (   0.0000000  -6.9268293   0.0000000  )
        18           C   tau(  18) = (   0.4999008  -6.6382114   0.0000000  )
        19           C   tau(  19) = (   0.0000000  -7.5040650   0.0000000  )
        20           C   tau(  20) = (   0.4999008  -7.7926829   0.0000000  )
        21           C   tau(  21) = (   0.0000000  -8.6585366   0.0000000  )
        22           C   tau(  22) = (   0.4999008  -8.3699187   0.0000000  )
        23           C   tau(  23) = (   0.0000000  -9.2357724   0.0000000  )
        24           C   tau(  24) = (   0.4999008  -9.5243902   0.0000000  )
        25           C   tau(  25) = (   0.0000000 -10.3902439   0.0000000  )
        26           C   tau(  26) = (   0.4999008 -10.1016260   0.0000000  )
        27           C   tau(  27) = (   0.0000000 -10.9674797   0.0000000  )
        28           C   tau(  28) = (   0.4999008 -11.2560976   0.0000000  )
        29           C   tau(  29) = (   0.0000000 -12.1219512   0.0000000  )
        30           C   tau(  30) = (   0.4999008 -11.8333333   0.0000000  )
        31           H   tau(  31) = (   0.4999008   0.7357724   0.0000000  )
        32           H   tau(  32) = (   0.0000000 -12.5691057   0.0000000  )

     number of k points=    11  gaussian smearing, width (Ry)=  0.0300
                       cart. coord. in units 2pi/alat
        k(    1) = (   0.0000000   0.0000000   0.0000000), wk =   0.1000000
        k(    2) = (   0.0500000   0.0000000   0.0000000), wk =   0.2000000
        k(    3) = (   0.1000000   0.0000000   0.0000000), wk =   0.2000000
        k(    4) = (   0.1500000   0.0000000   0.0000000), wk =   0.2000000
        k(    5) = (   0.2000000   0.0000000   0.0000000), wk =   0.2000000
        k(    6) = (   0.2500000   0.0000000   0.0000000), wk =   0.2000000
        k(    7) = (   0.3000000   0.0000000   0.0000000), wk =   0.2000000
        k(    8) = (   0.3500000   0.0000000   0.0000000), wk =   0.2000000
        k(    9) = (   0.4000000   0.0000000   0.0000000), wk =   0.2000000
        k(   10) = (   0.4500000   0.0000000   0.0000000), wk =   0.2000000
        k(   11) = (  -0.5000000   0.0000000   0.0000000), wk =   0.1000000

     Dense  grid:  2295449 G-vectors     FFT dimensions: (  30, 720, 240)

     Smooth grid:   681651 G-vectors     FFT dimensions: (  20, 480, 160)

     Estimated max dynamical RAM per process >    3956.69Mb

     Initial potential from superposition of free atoms
     Check: negative starting charge=   -0.000569

     starting charge  121.99873, renormalised to  122.00000

     negative rho (up, down):  5.686E-04 0.000E+00
     Starting wfc are  122 randomized atomic wfcs
     Checking if some PAW data can be deallocated... 

     total cpu time spent up to now is      265.1 secs

     Self-consistent Calculation

     iteration #  1     ecut=    40.00 Ry     beta=0.70
     Davidson diagonalization with overlap
     ethr =  1.00E-02,  avg # of iterations =  6.7

     total cpu time spent up to now is     1209.9 secs

     total energy              =    -555.04883603 Ry
     Harris-Foulkes estimate   =    -557.02968047 Ry
     estimated scf accuracy    <       3.17586766 Ry

     iteration #  2     ecut=    40.00 Ry     beta=0.70
     Davidson diagonalization with overlap
     ethr =  2.60E-03,  avg # of iterations =  7.5

     total cpu time spent up to now is     1852.7 secs

     total energy              =    -555.29306682 Ry
     Harris-Foulkes estimate   =    -555.36176675 Ry
     estimated scf accuracy    <       0.12147948 Ry

     iteration #  3     ecut=    40.00 Ry     beta=0.70
     Davidson diagonalization with overlap
     c_bands:  3 eigenvalues not converged
     c_bands:  3 eigenvalues not converged
     ethr =  9.96E-05,  avg # of iterations = 22.2

     negative rho (up, down):  5.742E-07 0.000E+00

     total cpu time spent up to now is     3937.0 secs

     total energy              =    -555.56427671 Ry
     Harris-Foulkes estimate   =    -555.74606753 Ry
     estimated scf accuracy    <       0.74386411 Ry

     iteration #  4     ecut=    40.00 Ry     beta=0.70
     Davidson diagonalization with overlap
     c_bands:  2 eigenvalues not converged
     ethr =  9.96E-05,  avg # of iterations = 13.4

     negative rho (up, down):  4.108E-06 0.000E+00

     total cpu time spent up to now is     4953.1 secs

     total energy              =    -555.58914148 Ry
     Harris-Foulkes estimate   =    -555.69082570 Ry
     estimated scf accuracy    <       0.56113567 Ry

     iteration #  5     ecut=    40.00 Ry     beta=0.70
     Davidson diagonalization with overlap
     c_bands:  1 eigenvalues not converged
     c_bands:  1 eigenvalues not converged
     ethr =  9.96E-05,  avg # of iterations = 15.7

     negative rho (up, down):  2.685E-05 0.000E+00

     total cpu time spent up to now is     5871.8 secs

     total energy              =    -555.59979590 Ry
     Harris-Foulkes estimate   =    -555.66173396 Ry
     estimated scf accuracy    <       0.35370662 Ry

     iteration #  6     ecut=    40.00 Ry     beta=0.70
     Davidson diagonalization with overlap
     c_bands:  1 eigenvalues not converged
     c_bands:  1 eigenvalues not converged
     ethr =  9.96E-05,  avg # of iterations = 13.6

     negative rho (up, down):  1.140E-04 0.000E+00

     total cpu time spent up to now is     6566.0 secs

     total energy              =    -555.62033096 Ry
     Harris-Foulkes estimate   =    -555.62585636 Ry
     estimated scf accuracy    <       0.01233113 Ry

     iteration #  7     ecut=    40.00 Ry     beta=0.70
     Davidson diagonalization with overlap
     ethr =  1.01E-05,  avg # of iterations = 12.7

     negative rho (up, down):  2.520E-04 0.000E+00

     total cpu time spent up to now is     7632.4 secs

     total energy              =    -555.62462108 Ry
     Harris-Foulkes estimate   =    -555.62783775 Ry
     estimated scf accuracy    <       0.00802635 Ry

     iteration #  8     ecut=    40.00 Ry     beta=0.70
     Davidson diagonalization with overlap
     c_bands:  1 eigenvalues not converged
     c_bands:  1 eigenvalues not converged
     c_bands:  1 eigenvalues not converged
     ethr =  6.58E-06,  avg # of iterations = 12.3

     negative rho (up, down):  2.639E-04 0.000E+00

     total cpu time spent up to now is     8175.1 secs

     total energy              =    -555.62530544 Ry
     Harris-Foulkes estimate   =    -555.62616232 Ry
     estimated scf accuracy    <       0.00261674 Ry

     iteration #  9     ecut=    40.00 Ry     beta=0.70
     Davidson diagonalization with overlap
     c_bands:  1 eigenvalues not converged
     c_bands:  1 eigenvalues not converged
     c_bands:  1 eigenvalues not converged
     c_bands:  1 eigenvalues not converged
     ethr =  2.14E-06,  avg # of iterations = 16.8

     negative rho (up, down):  2.674E-04 0.000E+00

     total cpu time spent up to now is     8819.5 secs

     total energy              =    -555.62566982 Ry
     Harris-Foulkes estimate   =    -555.62583928 Ry
     estimated scf accuracy    <       0.00043820 Ry

     iteration # 10     ecut=    40.00 Ry     beta=0.70
     Davidson diagonalization with overlap
     ethr =  3.59E-07,  avg # of iterations =  5.6

     negative rho (up, down):  2.829E-04 0.000E+00

     total cpu time spent up to now is     9537.8 secs

     total energy              =    -555.62588307 Ry
     Harris-Foulkes estimate   =    -555.62591602 Ry
     estimated scf accuracy    <       0.00009243 Ry

     iteration # 11     ecut=    40.00 Ry     beta=0.70
     Davidson diagonalization with overlap
     ethr =  7.58E-08,  avg # of iterations =  2.9

     negative rho (up, down):  2.966E-04 0.000E+00

     total cpu time spent up to now is    10056.1 secs

     total energy              =    -555.62589898 Ry
     Harris-Foulkes estimate   =    -555.62591289 Ry
     estimated scf accuracy    <       0.00004644 Ry

     iteration # 12     ecut=    40.00 Ry     beta=0.70
     Davidson diagonalization with overlap
     ethr =  3.81E-08,  avg # of iterations =  2.2

     negative rho (up, down):  3.025E-04 0.000E+00

     total cpu time spent up to now is    10515.4 secs

     total energy              =    -555.62590512 Ry
     Harris-Foulkes estimate   =    -555.62590916 Ry
     estimated scf accuracy    <       0.00000878 Ry

     iteration # 13     ecut=    40.00 Ry     beta=0.70
     Davidson diagonalization with overlap
     ethr =  7.20E-09,  avg # of iterations =  4.0

     negative rho (up, down):  3.054E-04 0.000E+00

     total cpu time spent up to now is    11253.2 secs

     total energy              =    -555.62590933 Ry
     Harris-Foulkes estimate   =    -555.62591175 Ry
     estimated scf accuracy    <       0.00000908 Ry

     iteration # 14     ecut=    40.00 Ry     beta=0.70
     Davidson diagonalization with overlap
     ethr =  7.20E-09,  avg # of iterations =  1.0

     negative rho (up, down):  3.035E-04 0.000E+00

     total cpu time spent up to now is    11704.2 secs

     total energy              =    -555.62590931 Ry
     Harris-Foulkes estimate   =    -555.62591189 Ry
     estimated scf accuracy    <       0.00002965 Ry

     iteration # 15     ecut=    40.00 Ry     beta=0.70
     Davidson diagonalization with overlap
     ethr =  7.20E-09,  avg # of iterations =  1.0

     negative rho (up, down):  3.040E-04 0.000E+00

     total cpu time spent up to now is    12156.8 secs

     total energy              =    -555.62591059 Ry
     Harris-Foulkes estimate   =    -555.62591079 Ry
     estimated scf accuracy    <       0.00000110 Ry

     iteration # 16     ecut=    40.00 Ry     beta=0.70
     Davidson diagonalization with overlap
     ethr =  9.05E-10,  avg # of iterations =  3.9

     negative rho (up, down):  3.053E-04 0.000E+00

     total cpu time spent up to now is    12687.0 secs

     End of self-consistent calculation

          k = 0.0000 0.0000 0.0000 ( 85433 PWs)   bands (ev):

   -22.6084 -22.5212 -22.3876 -22.2077 -21.9814 -21.7082 -21.3887 -21.0234
   -20.6132 -20.1602 -19.6671 -19.1383 -18.5832 -18.0268 -17.5555 -16.1049
   -15.5408 -14.8505 -14.1006 -13.3157 -12.5097 -11.6937 -10.8785 -10.6856
   -10.5850 -10.4295 -10.2198 -10.0765  -9.9565  -9.6402  -9.4759  -9.3889
    -9.3010  -9.2731  -9.2572  -9.0828  -8.8674  -8.8576  -8.6140  -8.5666
    -8.3978  -8.3273  -8.0135  -7.9001  -7.8901  -7.6811  -7.3745  -7.3413
    -7.2899  -7.0088  -6.8367  -6.7877  -6.7009  -6.4384  -6.4093  -6.3145
    -6.2437  -6.1805  -6.1365  -5.8562  -5.5374  -1.2238  -0.8297  -0.2665
     0.1845   0.2331   0.2785   0.3550   0.3848   0.4906   0.6684   0.6839
     0.8511   0.8570   0.9063   0.9148   0.9738   0.9966   1.0520   1.0552
     1.0727   1.0757   1.1315   1.1926   1.1967   1.2785   1.2925   1.2944
     1.3424   1.3605

          k = 0.0500 0.0000 0.0000 ( 85419 PWs)   bands (ev):

   -22.5640 -22.4768 -22.3432 -22.1635 -21.9372 -21.6642 -21.3449 -20.9798
   -20.5700 -20.1173 -19.6247 -19.0965 -18.5422 -17.9868 -17.5167 -16.0676
   -15.5052 -14.8172 -14.0703 -13.2894 -12.4884 -11.6790 -10.8726 -10.6324
   -10.5318 -10.3765 -10.1670 -10.0824  -9.9040  -9.6727  -9.5880  -9.5854
    -9.4527  -9.3287  -9.2714  -9.2212  -9.0603  -8.8060  -8.8020  -8.6214
    -8.4978  -8.3466  -8.2003  -7.9524  -7.8528  -7.8493  -7.4925  -7.4045
    -7.3238  -7.1238  -6.9742  -6.7859  -6.7590  -6.6548  -6.4517  -6.4299
    -6.3089  -6.2631  -6.2577  -5.8037  -5.4837  -1.2362  -0.8412  -0.2770
     0.2446   0.2912   0.3349   0.3794   0.4123   0.5496   0.7296   0.7439
     0.8948   0.9173   0.9645   0.9753   1.0325   1.0581   1.1090   1.1137
     1.1342   1.1348   1.1928   1.2290   1.2587   1.3378   1.3537   1.3547
     1.3867   1.4221

          k = 0.1000 0.0000 0.0000 ( 85265 PWs)   bands (ev):

   -22.4307 -22.3436 -22.2102 -22.0308 -21.8049 -21.5323 -21.2136 -20.8492
   -20.4403 -19.9889 -19.4977 -18.9714 -18.4194 -17.8670 -17.4005 -15.9573
   -15.4000 -14.7195 -13.9825 -13.2145 -12.4308 -11.6444 -10.8701 -10.4730
   -10.3727 -10.2179 -10.2172 -10.1301 -10.1275 -10.0091  -9.9875  -9.8134
    -9.7468  -9.5831  -9.4552  -9.4318  -9.2824  -9.0661  -9.0376  -8.7668
    -8.6744  -8.6521  -8.2721  -8.2496  -8.1939  -7.8328  -7.8071  -7.6975
    -7.4184  -7.4039  -7.1726  -7.0826  -7.0521  -6.8405  -6.8124  -6.6343
    -6.6283  -6.5201  -6.1098  -5.6470  -5.3229  -1.2823  -0.8849  -0.3193
     0.3445   0.4245   0.4639   0.5030   0.5841   0.7264   0.9136   0.9233
     0.9783   1.0981   1.1386   1.1564   1.2096   1.2432   1.2477   1.2993
     1.3131   1.3186   1.3545   1.3771   1.4442   1.5139   1.5346   1.5370
     1.5432   1.6065

          k = 0.1500 0.0000 0.0000 ( 85215 PWs)   bands (ev):

   -22.2090 -22.1221 -21.9891 -21.8100 -21.5847 -21.3129 -20.9952 -20.6322
   -20.2249 -19.7754 -19.2868 -18.7636 -18.2156 -17.6681 -17.2073 -15.7802
   -15.2322 -14.5662 -13.8495 -13.1096 -12.3657 -11.6379 -11.0002 -10.9653
   -10.8963 -10.7645 -10.5601 -10.4101 -10.2268 -10.2086 -10.1088 -10.0626
    -9.9549  -9.7473  -9.7205  -9.6920  -9.4865  -9.2685  -9.2256  -9.1734
    -8.8219  -8.8098  -8.7408  -8.3980  -8.3911  -8.2705  -7.9994  -7.9420
    -7.8566  -7.6625  -7.5896  -7.4476  -7.3769  -7.1379  -6.9956  -6.9474
    -6.9239  -6.3852  -5.8576  -5.3882  -5.0562  -1.3882  -0.9881  -0.4245
     0.2358   0.7209   0.7447   0.7806   0.8719   0.9308   1.0211   1.2204
     1.2216   1.3997   1.4100   1.4572   1.4932   1.5001   1.5515   1.6015
     1.6082   1.6257   1.6384   1.6841   1.7449   1.7538   1.8335   1.8337
     1.8427   1.8832

          k = 0.2000 0.0000 0.0000 ( 85175 PWs)   bands (ev):

   -21.8996 -21.8130 -21.6803 -21.5019 -21.2775 -21.0068 -20.6906 -20.3294
   -19.9244 -19.4779 -18.9930 -18.4745 -17.9322 -17.3915 -16.9376 -15.5529
   -15.0214 -14.3843 -13.7124 -13.0421 -12.4076 -11.9081 -11.8477 -11.7974
   -11.6118 -11.4705 -11.2488 -11.1546 -10.7830 -10.7773 -10.3533 -10.2938
    -9.8729  -9.8411  -9.8225  -9.7423  -9.5897  -9.3841  -9.3794  -9.3568
    -9.1258  -8.9761  -8.8463  -8.8157  -8.6344  -8.4629  -8.4556  -8.3308
    -8.0477  -7.9634  -7.6893  -7.5957  -7.5325  -7.5090  -7.4835  -7.1050
    -6.5839  -6.0453  -5.5131  -5.0328  -4.6863  -1.5928  -1.1893  -0.6342
     0.0045   0.6812   1.1155   1.1209   1.1770   1.2806   1.3572   1.4348
     1.6383   1.6505   1.8228   1.8511   1.8765   1.8858   1.9589   1.9834
     2.0332   2.0406   2.0552   2.0626   2.1144   2.1363   2.1865   2.2505
     2.2637   2.2702

          k = 0.2500 0.0000 0.0000 ( 85013 PWs)   bands (ev):

   -21.5035 -21.4172 -21.2852 -21.1076 -20.8843 -20.6151 -20.3009 -19.9422
   -19.5405 -19.0981 -18.6185 -18.1065 -17.5722 -17.0402 -16.5931 -15.3262
   -14.8325 -14.2728 -13.7330 -13.2578 -12.8566 -12.7950 -12.6377 -12.5285
   -12.3386 -12.1927 -11.9484 -11.7755 -11.5267 -11.2902 -11.0682 -10.8057
   -10.5446 -10.3584  -9.9756  -9.9482  -9.5982  -9.4312  -9.3737  -9.3542
    -9.2762  -9.1259  -8.9234  -8.9156  -8.6692  -8.5104  -8.3640  -8.2202
    -8.1717  -8.0777  -8.0484  -8.0136  -8.0098  -7.6085  -7.1637  -6.6801
    -6.1648  -5.6286  -5.0911  -4.5928  -4.2187  -1.9343  -1.5211  -0.9794
    -0.3793   0.2422   0.8649   1.4758   1.5752   1.5761   1.7112   1.8143
     1.9692   2.0585   2.1733   2.2044   2.3683   2.4134   2.4326   2.4380
     2.5146   2.5392   2.5962   2.5980   2.6065   2.6182   2.6682   2.6902
     2.7423   2.7850

          k = 0.3000 0.0000 0.0000 ( 84855 PWs)   bands (ev):

   -21.0223 -20.9364 -20.8051 -20.6286 -20.4069 -20.1398 -19.8282 -19.4730
   -19.0758 -18.6394 -18.1676 -17.6658 -17.1441 -16.6243 -16.1784 -15.2784
   -14.8979 -14.5424 -14.2369 -13.9491 -13.6531 -13.4511 -13.3171 -13.2049
   -12.9531 -12.8210 -12.5593 -12.3303 -12.1362 -11.8082 -11.6548 -11.3443
   -11.0789 -10.9227 -10.5572 -10.4805 -10.3081  -9.9075  -9.4016  -8.9883
    -8.9008  -8.8109  -8.7330  -8.7155  -8.6927  -8.5882  -8.5688  -8.5029
    -8.4806  -8.3713  -8.1238  -7.8269  -7.4828  -7.0935  -6.6622  -6.1934
    -5.6927  -5.1675  -4.6302  -4.1061  -3.6710  -2.4193  -1.9695  -1.4408
    -0.8929  -0.3446   0.1979   0.7321   1.2569   1.7697   2.0926   2.0933
     2.2644   2.3728   2.4724   2.6252   2.7282   2.8268   2.8822   3.0368
     3.0666   3.0803   3.1375   3.1445   3.2082   3.2189   3.2744   3.2796
     3.2833   3.3158

          k = 0.3500 0.0000 0.0000 ( 84842 PWs)   bands (ev):

   -20.4580 -20.3728 -20.2425 -20.0675 -19.8479 -19.5836 -19.2759 -18.9260
   -18.5362 -18.1101 -17.6533 -17.1743 -16.6890 -16.2275 -15.7554 -15.6633
   -15.3868 -15.2367 -15.0533 -14.8323 -14.5707 -14.2712 -13.9344 -13.5763
   -13.4863 -13.1963 -13.0928 -12.7560 -12.6035 -12.3093 -12.0401 -11.8785
   -11.4963 -11.4427 -11.2310 -10.8462 -10.2842  -9.7837  -9.6646  -9.4345
    -9.3741  -9.1919  -9.0826  -9.0116  -8.8667  -8.8545  -8.1591  -8.0673
    -7.9265  -7.7375  -7.5014  -7.2193  -6.8937  -6.5275  -6.1246  -5.6899
    -5.2295  -4.7500  -4.2586  -3.7623  -3.1503  -2.9226  -2.3382  -1.8709
    -1.4172  -0.9705  -0.5252  -0.0777   0.3735   0.8268   1.2765   1.7126
     2.1204   2.4789   2.6532   2.6538   2.7613   2.9373   3.1552   3.2524
     3.4019   3.5983   3.6837   3.8275   3.8328   3.8930   3.9260   3.9794
     4.0251   4.0708

          k = 0.4000 0.0000 0.0000 ( 84898 PWs)   bands (ev):

   -19.8141 -19.7297 -19.6009 -19.4282 -19.2118 -18.9522 -18.6514 -18.3119
   -17.9386 -17.5419 -17.1454 -16.8143 -16.6585 -16.6410 -16.0136 -15.9967
   -15.7066 -15.6950 -15.4674 -15.3702 -15.1795 -15.0639 -14.8640 -14.5033
   -14.1035 -13.6779 -13.2367 -13.1219 -12.7965 -12.7202 -12.3975 -12.2057
   -12.1138 -11.6416 -11.0747 -10.5341 -10.4356 -10.1519 -10.0499  -9.8276
    -9.6523  -9.5349  -9.3717  -9.3279  -9.1298  -9.1237  -7.4279  -7.3423
    -7.2118  -7.0381  -6.8231  -6.5693  -6.2812  -5.9642  -5.6261  -5.2776
    -4.9328  -4.6105  -4.3372  -4.1502  -3.0492  -3.0490  -1.9823  -1.8507
    -1.6589  -1.4175  -1.1331  -0.8114  -0.4583  -0.0813   0.3095   0.7006
     1.0740   1.4060   1.6679   1.8292   3.2338   3.2343   4.0556   4.1506
     4.2959   4.4798   4.5895   4.5953   4.6074   4.6956   4.7220   4.7952
     4.8318   4.8982

          k = 0.4500 0.0000 0.0000 ( 84972 PWs)   bands (ev):

   -19.0955 -19.0126 -18.8863 -18.7178 -18.5080 -18.2593 -17.9773 -17.6749
   -17.4763 -17.4089 -17.3874 -17.3143 -17.2222 -17.2138 -16.3234 -16.3121
   -16.0384 -16.0137 -15.7371 -15.6281 -15.3786 -15.1883 -14.9794 -14.7576
   -14.5529 -14.4304 -14.1102 -13.6618 -13.2484 -12.9496 -12.5608 -12.1700
   -11.6797 -11.1899 -11.1591 -10.8612 -10.6518 -10.4686 -10.1918 -10.0833
    -9.8121  -9.7544  -9.5466  -9.5257  -9.2880  -9.2855  -6.6312  -6.5571
    -6.4465  -6.3028  -6.1306  -5.9363  -5.7299  -5.5238  -5.3334  -5.1743
    -5.0573  -4.9840  -4.9461  -4.9367  -3.0799  -3.0798  -1.4023  -1.3999
    -1.3047  -1.2880  -1.1942  -1.1854  -1.0541  -0.8217  -0.5352  -0.2211
     0.0950   0.3848   0.6166   0.7592   3.7949   3.7956   4.5001   4.5325
     4.7197   4.8038   5.0690   5.0959   5.1666   5.1916   5.3353   5.5005
     5.5579   5.6877

          k =-0.5000 0.0000 0.0000 ( 84998 PWs)   bands (ev):

   -18.3122 -18.3090 -18.2326 -18.2294 -18.1127 -18.1095 -17.9558 -17.9527
   -17.7682 -17.7653 -17.5674 -17.5650 -17.4079 -17.4068 -16.4364 -16.4356
   -16.1434 -16.1414 -15.7869 -15.7841 -15.3705 -15.3673 -14.9214 -14.9179
   -14.4634 -14.4596 -14.0367 -14.0326 -13.7240 -13.7195 -11.9066 -11.9049
   -11.5420 -11.5401 -11.0938 -11.0919 -10.6329 -10.6311 -10.2048 -10.2033
    -9.8476  -9.8464  -9.5993  -9.5988  -9.3402  -9.3400  -5.7920  -5.7885
    -5.7419  -5.7386  -5.6738  -5.6707  -5.5953  -5.5926  -5.5175  -5.5154
    -5.4547  -5.4535  -5.4132  -5.4127  -3.0940  -3.0940  -1.3156  -1.3154
    -1.1726  -1.1720  -0.9733  -0.9720  -0.7477  -0.7456  -0.5288  -0.5260
    -0.3512  -0.3476  -0.2467  -0.2423   4.1637   4.1640   4.4121   4.4126
     4.6509   4.6517   5.0754   5.0762   5.6398   5.6406   6.1935   6.1940
     6.2671   6.2676

     the Fermi energy is    -3.0606 ev

!    total energy              =    -555.62591064 Ry
     Harris-Foulkes estimate   =    -555.62591083 Ry
     estimated scf accuracy    <       0.00000021 Ry

     total all-electron energy =     -2288.548948 Ry

     The total energy is the sum of the following terms:

     one-electron contribution =   -7377.94418536 Ry
     hartree contribution      =    3707.59751816 Ry
     xc contribution           =    -125.78626032 Ry
     ewald contribution        =    3440.13643356 Ry
     one-center paw contrib.   =    -199.61735773 Ry
     smearing contrib. (-TS)   =      -0.01205895 Ry

     convergence has been achieved in  16 iterations

     Writing output data file ZGNR15.save

     init_run     :    240.03s CPU    264.77s WALL (       1 calls)
     electrons    :  12294.18s CPU  12423.21s WALL (       1 calls)

     Called by init_run:
     wfcinit      :    219.20s CPU    220.58s WALL (       1 calls)
     potinit      :      6.58s CPU     10.44s WALL (       1 calls)

     Called by electrons:
     c_bands      :  11181.38s CPU  11271.66s WALL (      16 calls)
     sum_band     :    948.94s CPU    969.87s WALL (      16 calls)
     v_of_rho     :     32.18s CPU     38.51s WALL (      17 calls)
     newd         :    116.10s CPU    143.92s WALL (      17 calls)
     PAW_pot      :     16.60s CPU     16.61s WALL (      17 calls)
     mix_rho      :      4.83s CPU      4.92s WALL (      16 calls)

     Called by c_bands:
     init_us_2    :     21.53s CPU     21.63s WALL (     363 calls)
     cegterg      :  11111.47s CPU  11201.45s WALL (     182 calls)

     Called by sum_band:
     sum_band:bec :      0.07s CPU      0.07s WALL (     176 calls)
     addusdens    :    102.37s CPU    122.09s WALL (      16 calls)

     Called by *egterg:
     h_psi        :   5110.99s CPU   5118.03s WALL (    1750 calls)
     s_psi        :   1574.15s CPU   1575.11s WALL (    1750 calls)
     g_psi        :      8.83s CPU      8.84s WALL (    1557 calls)
     cdiaghg      :     83.89s CPU     83.98s WALL (    1739 calls)

     Called by h_psi:
     h_psi:pot    :   5099.43s CPU   5105.96s WALL (    1750 calls)
     h_psi:calbec :   1608.02s CPU   1608.96s WALL (    1750 calls)
     vloc_psi     :   1934.80s CPU   1939.49s WALL (    1750 calls)
     add_vuspsi   :   1556.59s CPU   1557.50s WALL (    1750 calls)

     General routines
     calbec       :   2104.42s CPU   2105.71s WALL (    1926 calls)
     fft          :     23.15s CPU     27.05s WALL (     268 calls)
     ffts         :      0.73s CPU      0.73s WALL (      33 calls)
     fftw         :   1844.60s CPU   1848.55s WALL (  118960 calls)
     interpolate  :      4.38s CPU      4.45s WALL (      33 calls)
     davcio       :      0.12s CPU      6.27s WALL (      11 calls)

     Parallel routines
     fft_scatter  :    235.19s CPU    237.19s WALL (  119261 calls)

     PWSCF        :     3h28m CPU        3h31m WALL


   This run was terminated on:   1:18:39   3Apr2019            

=------------------------------------------------------------------------------=
   JOB DONE.
=------------------------------------------------------------------------------=
