
     Program PWSCF v.6.0 (svn rev. 13079) starts on  5Apr2019 at 12:11:21 

     This program is part of the open-source Quantum ESPRESSO suite
     for quantum simulation of materials; please cite
         "P. Giannozzi et al., J. Phys.:Condens. Matter 21 395502 (2009);
          URL http://www.quantum-espresso.org", 
     in publications or presentations arising from this work. More details at
     http://www.quantum-espresso.org/quote

     Parallel version (MPI), running on     1 processors
     Waiting for input...
     Reading input from standard input

     Current dimensions of program PWSCF are:
     Max number of different atomic species (ntypx) = 10
     Max number of k-points (npk) =  40000
     Max angular momentum in pseudopotentials (lmaxx) =  3

     Atomic positions and unit cell read from directory:
     ./ZGNR5.save/

               file C.pbe-n-kjpaw_psl.0.1.UPF: wavefunction(s)  2P renormalized
               file H.pbe-kjpaw_psl.0.1.UPF: wavefunction(s)  1S renormalized

     Subspace diagonalization in iterative solution of the eigenvalue problem:
     a serial algorithm will be used


     G-vector sticks info
     --------------------
     sticks:   dense  smooth     PW     G-vecs:    dense   smooth      PW
     Sum        5025    2251    691               382547   113595   19257



     bravais-lattice index     =            0
     lattice parameter (alat)  =       4.6487  a.u.
     unit-cell volume          =    3320.1806 (a.u.)^3
     number of atoms/cell      =           12
     number of atomic types    =            2
     number of electrons       =        42.00
     number of Kohn-Sham states=           36
     kinetic-energy cutoff     =      40.0000  Ry
     charge density cutoff     =     360.0000  Ry
     Exchange-correlation      =  SLA  PW   PBX  PBC ( 1  4  3  4 0 0)

     celldm(1)=   4.648726  celldm(2)=   0.000000  celldm(3)=   0.000000
     celldm(4)=   0.000000  celldm(5)=   0.000000  celldm(6)=   0.000000

     crystal axes: (cart. coord. in units of alat)
               a(1) = (   1.000000   0.000000   0.000000 )  
               a(2) = (   0.000000   8.130081   0.000000 )  
               a(3) = (   0.000000   0.000000   4.065041 )  

     reciprocal axes: (cart. coord. in units 2 pi/alat)
               b(1) = (  1.000000  0.000000  0.000000 )  
               b(2) = (  0.000000  0.123000  0.000000 )  
               b(3) = (  0.000000  0.000000  0.246000 )  


     PseudoPot. # 1 for  C read from file:
     /mnt/hgfs/Linux_NTNU/QE_docs/PSEUDO_POTENTIALS/C.pbe-n-kjpaw_psl.0.1.UPF
     MD5 check sum: bf2aebf1cd97aced799cfc3ffd9ff9ea
     Pseudo is Projector augmented-wave + core cor, Zval =  4.0
     Generated using "atomic" code by A. Dal Corso  v.5.0.2 svn rev. 9415
     Shape of augmentation charge: BESSEL
     Using radial grid of 1073 points,  4 beta functions with: 
                l(1) =   0
                l(2) =   0
                l(3) =   1
                l(4) =   1
     Q(r) pseudized with 0 coefficients 


     PseudoPot. # 2 for  H read from file:
     /mnt/hgfs/Linux_NTNU/QE_docs/PSEUDO_POTENTIALS/H.pbe-kjpaw_psl.0.1.UPF
     MD5 check sum: fbb168fef676c0aaadbafd73f5b1efa8
     Pseudo is Projector augmented-wave, Zval =  1.0
     Generated using "atomic" code by A. Dal Corso  v.5.0.2 svn rev. 9415
     Shape of augmentation charge: PSQ
     Using radial grid of  929 points,  2 beta functions with: 
                l(1) =   0
                l(2) =   0
     Q(r) pseudized with 0 coefficients 


     atomic species   valence    mass     pseudopotential
        C              4.00    12.01100      C( 1.00)
        H              1.00     1.00000      H( 1.00)

      2 Sym. Ops. (no inversion) found



   Cartesian axes

     site n.     atom                  positions (alat units)
         1           C   tau(   1) = (   0.0000000   0.0000000   0.0000000  )
         2           C   tau(   2) = (   0.4999008   0.2886179   0.0000000  )
         3           C   tau(   3) = (   0.0000000  -0.5772358   0.0000000  )
         4           C   tau(   4) = (   0.4999008  -0.8658537   0.0000000  )
         5           C   tau(   5) = (   0.0000000  -1.7317073   0.0000000  )
         6           C   tau(   6) = (   0.4999008  -1.4430894   0.0000000  )
         7           C   tau(   7) = (   0.0000000  -2.3089431   0.0000000  )
         8           C   tau(   8) = (   0.4999008  -2.5975610   0.0000000  )
         9           C   tau(   9) = (   0.0000000  -3.4634146   0.0000000  )
        10           C   tau(  10) = (   0.4999008  -3.1747967   0.0000000  )
        11           H   tau(  11) = (   0.4999008   0.7357724   0.0000000  )
        12           H   tau(  12) = (   0.0000000  -3.9105691   0.0000000  )

     number of k points=    31  gaussian smearing, width (Ry)=  0.0300
                       cart. coord. in units 2pi/alat
        k(    1) = (   0.0000000   0.0000000   0.0000000), wk =   0.0645161
        k(    2) = (   0.0166667   0.0000000   0.0000000), wk =   0.0645161
        k(    3) = (   0.0333333   0.0000000   0.0000000), wk =   0.0645161
        k(    4) = (   0.0500000   0.0000000   0.0000000), wk =   0.0645161
        k(    5) = (   0.0666667   0.0000000   0.0000000), wk =   0.0645161
        k(    6) = (   0.0833333   0.0000000   0.0000000), wk =   0.0645161
        k(    7) = (   0.1000000   0.0000000   0.0000000), wk =   0.0645161
        k(    8) = (   0.1166667   0.0000000   0.0000000), wk =   0.0645161
        k(    9) = (   0.1333333   0.0000000   0.0000000), wk =   0.0645161
        k(   10) = (   0.1500000   0.0000000   0.0000000), wk =   0.0645161
        k(   11) = (   0.1666667   0.0000000   0.0000000), wk =   0.0645161
        k(   12) = (   0.1833333   0.0000000   0.0000000), wk =   0.0645161
        k(   13) = (   0.2000000   0.0000000   0.0000000), wk =   0.0645161
        k(   14) = (   0.2166667   0.0000000   0.0000000), wk =   0.0645161
        k(   15) = (   0.2333333   0.0000000   0.0000000), wk =   0.0645161
        k(   16) = (   0.2500000   0.0000000   0.0000000), wk =   0.0645161
        k(   17) = (   0.2666667   0.0000000   0.0000000), wk =   0.0645161
        k(   18) = (   0.2833333   0.0000000   0.0000000), wk =   0.0645161
        k(   19) = (   0.3000000   0.0000000   0.0000000), wk =   0.0645161
        k(   20) = (   0.3166667   0.0000000   0.0000000), wk =   0.0645161
        k(   21) = (   0.3333333   0.0000000   0.0000000), wk =   0.0645161
        k(   22) = (   0.3500000   0.0000000   0.0000000), wk =   0.0645161
        k(   23) = (   0.3666667   0.0000000   0.0000000), wk =   0.0645161
        k(   24) = (   0.3833333   0.0000000   0.0000000), wk =   0.0645161
        k(   25) = (   0.4000000   0.0000000   0.0000000), wk =   0.0645161
        k(   26) = (   0.4166667   0.0000000   0.0000000), wk =   0.0645161
        k(   27) = (   0.4333333   0.0000000   0.0000000), wk =   0.0645161
        k(   28) = (   0.4500000   0.0000000   0.0000000), wk =   0.0645161
        k(   29) = (   0.4666667   0.0000000   0.0000000), wk =   0.0645161
        k(   30) = (   0.4833333   0.0000000   0.0000000), wk =   0.0645161
        k(   31) = (   0.5000000   0.0000000   0.0000000), wk =   0.0645161

     Dense  grid:   382547 G-vectors     FFT dimensions: (  30, 240, 120)

     Smooth grid:   113595 G-vectors     FFT dimensions: (  20, 160,  80)

     Estimated max dynamical RAM per process >     199.50Mb

     The potential is recalculated from file :
     ./ZGNR5.save/charge-density.dat


     negative rho (up, down):  2.174E-05 0.000E+00
     Starting wfc are   42 randomized atomic wfcs
     Checking if some PAW data can be deallocated... 

     Band Structure Calculation
     Davidson diagonalization with overlap
     c_bands:  1 eigenvalues not converged
     c_bands:  1 eigenvalues not converged
     c_bands:  1 eigenvalues not converged
     c_bands:  1 eigenvalues not converged
     c_bands:  1 eigenvalues not converged
     c_bands:  1 eigenvalues not converged

     ethr =  2.38E-09,  avg # of iterations = 78.4

     total cpu time spent up to now is      505.5 secs

     End of band structure calculation

          k = 0.0000 0.0000 0.0000 ( 14235 PWs)   bands (ev):

   -21.2594 -20.6366 -19.6606 -18.3692 -16.9296 -14.3681 -12.4838 -10.3776
    -9.3129  -8.6144  -8.3468  -8.1283  -7.5443  -7.5438  -6.7152  -6.6211
    -6.2014  -5.8206  -5.4105  -5.1620  -4.8795   0.3905   1.1086   1.4404
     1.4463   1.7970   2.1432   2.6316   2.7374   2.8384   2.8797   3.1619
     3.3862   3.8694   4.0365   4.1180

          k = 0.0167 0.0000 0.0000 ( 14231 PWs)   bands (ev):

   -21.2545 -20.6317 -19.6557 -18.3645 -16.9251 -14.3640 -12.4803 -10.3755
    -9.3070  -8.6085  -8.3476  -8.1505  -7.5646  -7.5385  -6.7508  -6.6099
    -6.1957  -5.8446  -5.4151  -5.1825  -4.8736   0.3897   1.1149   1.4469
     1.4524   1.7989   2.1493   2.6382   2.7430   2.8446   2.8845   3.1677
     3.3928   3.8752   4.0423   4.1247

          k = 0.0333 0.0000 0.0000 ( 14257 PWs)   bands (ev):

   -21.2397 -20.6170 -19.6412 -18.3504 -16.9117 -14.3518 -12.4701 -10.3691
    -9.2893  -8.5910  -8.3508  -8.2164  -7.6259  -7.5212  -6.8356  -6.5976
    -6.1784  -5.9145  -5.4299  -5.2431  -4.8559   0.3870   1.1337   1.4664
     1.4708   1.8042   2.1677   2.6580   2.7597   2.8632   2.8986   3.1853
     3.4126   3.8925   4.0599   4.1448

          k = 0.0500 0.0000 0.0000 ( 14265 PWs)   bands (ev):

   -21.2150 -20.5925 -19.6171 -18.3269 -16.8894 -14.3316 -12.4533 -10.3587
    -9.2598  -8.5618  -8.3580  -8.3239  -7.7242  -7.4924  -6.9563  -6.5958
    -6.1497  -6.0258  -5.4575  -5.3418  -4.8265   0.3822   1.1650   1.4990
     1.5014   1.8123   2.1982   2.6909   2.7875   2.8942   2.9222   3.2148
     3.4455   3.9209   4.0888   4.1782

          k = 0.0667 0.0000 0.0000 ( 14235 PWs)   bands (ev):

   -21.1805 -20.5583 -19.5833 -18.2940 -16.8582 -14.3034 -12.4299 -10.3448
    -9.2186  -8.5210  -8.4701  -8.3742  -7.8521  -7.4521  -7.1099  -6.6051
    -6.1731  -6.1095  -5.4998  -5.4753  -4.7853   0.3745   1.2087   1.5440
     1.5446   1.8217   2.2408   2.7369   2.8260   2.9375   2.9553   3.2567
     3.4915   3.9599   4.1289   4.2250

          k = 0.0833 0.0000 0.0000 ( 14247 PWs)   bands (ev):

   -21.1362 -20.5142 -19.5399 -18.2517 -16.8180 -14.2674 -12.4003 -10.3281
    -9.1656  -8.6509  -8.4686  -8.4118  -7.9945  -7.4003  -7.2937  -6.6254
    -6.3513  -6.0580  -5.6392  -5.5577  -4.7324   0.3630   1.2647   1.5986
     1.6032   1.8308   2.2954   2.7958   2.8747   2.9931   2.9979   3.3113
     3.5504   4.0083   4.1799   4.2851

          k = 0.1000 0.0000 0.0000 ( 14203 PWs)   bands (ev):

   -21.0820 -20.4604 -19.4868 -18.2000 -16.7690 -14.2238 -12.3649 -10.3098
    -9.1010  -8.8617  -8.4984  -8.4046  -8.1205  -7.5041  -7.3373  -6.6581
    -6.5547  -5.9952  -5.8275  -5.6315  -4.6678   0.3467   1.3330   1.6648
     1.6748   1.8370   2.3618   2.8675   2.9331   3.0504   3.0609   3.3791
     3.6221   4.0640   4.2415   4.3586

          k = 0.1167 0.0000 0.0000 ( 14183 PWs)   bands (ev):

   -21.0180 -20.3969 -19.4242 -18.1391 -16.7111 -14.1731 -12.3243 -10.2919
    -9.0973  -9.0247  -8.6601  -8.3292  -8.2023  -7.7365  -7.2629  -6.7767
    -6.7072  -6.0316  -5.9212  -5.7208  -4.5917   0.3242   1.4134   1.7424
     1.7595   1.8375   2.4400   2.9517   2.9997   3.1135   3.1412   3.4603
     3.7066   4.1232   4.3137   4.4454

          k = 0.1333 0.0000 0.0000 ( 14195 PWs)   bands (ev):

   -20.9443 -20.3236 -19.3520 -18.0688 -16.6443 -14.1157 -12.2794 -10.2780
    -9.3514  -8.9369  -8.8813  -8.2549  -8.2424  -7.9853  -7.1774  -7.0093
    -6.7829  -6.2377  -5.8362  -5.8252  -4.5041   0.2939   1.5057   1.8290
     1.8311   1.8573   2.5300   3.0482   3.0724   3.1879   3.2340   3.5554
     3.8037   4.1788   4.3966   4.5456

          k = 0.1500 0.0000 0.0000 ( 14191 PWs)   bands (ev):

   -20.8608 -20.2407 -19.2703 -17.9893 -16.5687 -14.0522 -12.2315 -10.2759
    -9.6154  -9.1360  -8.8376  -8.3078  -8.2437  -8.1443  -7.2407  -7.0810
    -6.9047  -6.4225  -5.9443  -5.7404  -4.4052   0.2541   1.6097   1.8080
     1.9305   1.9683   2.6318   3.1473   3.1566   3.2747   3.3395   3.6642
     3.9134   4.2196   4.4903   4.6590

          k = 0.1667 0.0000 0.0000 ( 14197 PWs)   bands (ev):

   -20.7675 -20.1481 -19.1790 -17.9005 -16.4844 -13.9835 -12.1826 -10.3052
    -9.8705  -9.4086  -8.7269  -8.5030  -8.3856  -8.0351  -7.4531  -7.0906
    -6.9736  -6.5649  -6.0775  -5.6339  -4.2950   0.2030   1.7252   1.7713
     2.0402   2.0925   2.7455   3.2173   3.2766   3.3747   3.4581   3.7870
     4.0354   4.2354   4.5951   4.7857

          k = 0.1833 0.0000 0.0000 ( 14193 PWs)   bands (ev):

   -20.6646 -20.0459 -19.0784 -17.8026 -16.3912 -13.9111 -12.1358 -10.4175
   -10.0703  -9.6887  -8.7506  -8.6049  -8.5123  -7.9148  -7.6243  -7.3317
    -6.8557  -6.6709  -6.2240  -5.5171  -4.1738   0.1388   1.7158   1.8520
     2.1595   2.2299   2.8711   3.2696   3.4076   3.4884   3.5901   3.9236
     4.1698   4.2310   4.7115   4.8787

          k = 0.2000 0.0000 0.0000 ( 14191 PWs)   bands (ev):

   -20.5520 -19.9341 -18.9683 -17.6956 -16.2894 -13.8368 -12.0963 -10.6424
   -10.1959  -9.9668  -8.9687  -8.7012  -8.4718  -7.7837  -7.7401  -7.6060
    -6.7601  -6.7274  -6.3830  -5.3902  -4.0418   0.0598   1.6393   1.9897
     2.2880   2.3807   3.0089   3.2842   3.5491   3.6159   3.7361   4.0740
     4.2312   4.3164   4.8396   4.9886

          k = 0.2167 0.0000 0.0000 ( 14187 PWs)   bands (ev):

   -20.4297 -19.8128 -18.8488 -17.5796 -16.1788 -13.7637 -12.0727 -10.9169
   -10.3243 -10.2311  -9.1357  -8.9441  -8.3276  -7.8985  -7.8078  -7.6420
    -6.8451  -6.5890  -6.5539  -5.2538  -3.8993  -0.0355   1.5402   2.1380
     2.4248   2.5448   3.1590   3.2405   3.7008   3.7560   3.8963   4.2380
     4.2656   4.4750   4.9801   5.1231

          k = 0.2333 0.0000 0.0000 ( 14175 PWs)   bands (ev):

   -20.2979 -19.6821 -18.7201 -17.4547 -16.0597 -13.6968 -12.0787 -11.1986
   -10.5025 -10.4658  -9.2384  -9.2222  -8.2010  -8.1726  -7.8444  -7.4898
    -6.9320  -6.7356  -6.4408  -5.1083  -3.7467  -0.1482   1.4181   2.2965
     2.5694   2.7224   3.1314   3.3218   3.8624   3.9050   4.0710   4.3481
     4.4155   4.6454   4.9823   5.1332

          k = 0.2500 0.0000 0.0000 ( 14151 PWs)   bands (ev):

   -20.1567 -19.5419 -18.5822 -17.3210 -15.9321 -13.6438 -12.1329 -11.4686
   -10.7333 -10.6506  -9.5204  -9.2832  -8.5074  -8.0070  -7.8640  -7.3275
    -7.0237  -6.9271  -6.2835  -4.9545  -3.5844  -0.2788   1.2736   2.4647
     2.7208   2.9133   2.9665   3.4975   4.0338   4.0489   4.2603   4.4745
     4.6061   4.7511   4.8274   5.2992

          k = 0.2667 0.0000 0.0000 ( 14159 PWs)   bands (ev):

   -20.0060 -19.3924 -18.4352 -17.1787 -15.7961 -13.6169 -12.2521 -11.7107
   -11.0010 -10.7687  -9.8275  -9.2920  -8.8100  -7.8748  -7.8309  -7.1554
    -7.1276  -7.1215  -6.1174  -4.7933  -3.4132  -0.4272   1.1083   2.6419
     2.7603   2.8785   3.1177   3.6865   4.1175   4.2147   4.4641   4.5819
     4.6345   4.8111   5.0205   5.4258

          k = 0.2833 0.0000 0.0000 ( 14145 PWs)   bands (ev):

   -19.8459 -19.2336 -18.2792 -17.0281 -15.6519 -13.6330 -12.4374 -11.9078
   -11.2880 -10.8220 -10.1335  -9.3162  -9.0704  -7.8820  -7.6446  -7.3357
    -7.2262  -6.9738  -5.9433  -4.6260  -3.2338  -0.5925   0.9249   2.5245
     2.8273   3.0417   3.3356   3.8891   3.9644   4.4053   4.6338   4.6823
     4.8178   5.0282   5.1652   5.2245

          k = 0.3000 0.0000 0.0000 ( 14153 PWs)   bands (ev):

   -19.6765 -19.0657 -18.1145 -16.8695 -15.4997 -13.7092 -12.6742 -12.0493
   -11.5752 -10.8442 -10.4146  -9.5144  -9.1389  -7.8886  -7.5503  -7.4483
    -7.3381  -6.7833  -5.7622  -4.4545  -3.0477  -0.7729   0.7272   2.2680
     3.0202   3.2100   3.5670   3.6848   4.1054   4.6054   4.8087   4.8156
     4.9147   5.0456   5.2584   5.4386

          k = 0.3167 0.0000 0.0000 ( 14135 PWs)   bands (ev):

   -19.4980 -18.8888 -17.9411 -16.7035 -15.3400 -13.8519 -12.9434 -12.1644
   -11.8191 -10.9482 -10.5732  -9.8082  -9.0988  -7.8990  -7.7680  -7.4571
    -7.2425  -6.5844  -5.5751  -4.2813  -2.8568  -0.9654   0.5201   1.9976
     3.2193   3.3709   3.3831   3.8118   4.3356   4.4623   4.8144   5.0388
     5.1608   5.2658   5.5013   5.6619

          k = 0.3333 0.0000 0.0000 ( 14128 PWs)   bands (ev):

   -19.3104 -18.7031 -17.7595 -16.5310 -15.1735 -14.0507 -13.2301 -12.3613
   -11.9155 -11.2027 -10.5519 -10.1137  -9.0370  -8.0060  -7.8963  -7.5829
    -7.0275  -6.3777  -5.3836  -4.1102  -2.6642  -1.1658   0.3101   1.7193
     3.0444   3.4232   3.5610   4.0699   4.1031   4.5795   5.0312   5.2846
     5.4202   5.5097   5.7566   5.8926

          k = 0.3500 0.0000 0.0000 ( 14130 PWs)   bands (ev):

   -19.1138 -18.5086 -17.5700 -16.3537 -15.0020 -14.2867 -13.5231 -12.6414
   -11.8771 -11.5028 -10.4632 -10.4195  -8.9667  -8.2311  -7.9138  -7.7151
    -6.8037  -6.1643  -5.1898  -3.9471  -2.4745  -1.3679   0.1060   1.4384
     2.7130   3.6302   3.7409   3.7438   4.3414   4.8368   5.2532   5.5480
     5.6918   5.7703   6.0241   6.1264

          k = 0.3667 0.0000 0.0000 ( 14140 PWs)   bands (ev):

   -18.9085 -18.3057 -17.3732 -16.1752 -14.8302 -14.5408 -13.8115 -12.9437
   -11.8109 -11.7781 -10.7223 -10.3489  -8.8924  -8.4625  -7.9319  -7.8531
    -6.5717  -5.9451  -4.9965  -3.8011  -2.2958  -1.5626  -0.0799   1.1605
     2.3812   3.3787   3.8379   3.9317   4.6260   5.1066   5.4746   5.8270
     5.9711   6.0463   6.2524   6.3034

          k = 0.3833 0.0000 0.0000 ( 14128 PWs)   bands (ev):

   -18.6945 -18.0946 -17.1700 -16.0041 -14.7936 -14.6775 -14.0717 -13.2495
   -12.1185 -11.6471 -11.0198 -10.2201  -8.8166  -8.6961  -7.9956  -7.9544
    -6.3320  -5.7217  -4.8078  -3.6861  -2.1404  -1.7369  -0.2302   0.8920
     2.0526   3.0185   4.0437   4.1252   4.9235   5.3862   5.6831   6.1205
     6.2130   6.3370   6.3422   6.4226

          k = 0.4000 0.0000 0.0000 ( 14154 PWs)   bands (ev):

   -18.4721 -17.8757 -16.9622 -15.8661 -15.0130 -14.6426 -14.2013 -13.5523
   -12.4223 -11.5046 -11.3019 -10.0811  -8.9307  -8.7425  -8.1405  -7.9821
    -6.0854  -5.4958  -4.6291  -3.6213  -2.0254  -1.8741  -0.3213   0.6404
     1.7306   2.6620   4.2444   4.3245   5.2337   5.6662   5.8590   6.3211
     6.3447   6.4274   6.6126   6.6417

          k = 0.4167 0.0000 0.0000 ( 14156 PWs)   bands (ev):

   -18.2416 -17.6497 -16.7531 -15.8323 -15.1248 -14.8223 -14.0992 -13.8479
   -12.7203 -11.6210 -11.3036  -9.9348  -9.1651  -8.6755  -8.2827  -8.0152
    -5.8328  -5.2701  -4.4685  -3.6262  -1.9661  -1.9590  -0.3310   0.4155
     1.4192   2.3109   4.4369   4.5298   5.5557   5.8862   5.9936   6.2506
     6.4949   6.7469   6.9180   6.9597

          k = 0.4333 0.0000 0.0000 ( 14148 PWs)   bands (ev):

   -18.0033 -17.4174 -16.5498 -15.9639 -15.0690 -15.0625 -14.1306 -13.9127
   -13.0101 -11.8980 -11.1262  -9.7829  -9.3985  -8.6378  -8.4005  -8.0539
    -5.5753  -5.0480  -4.3366  -3.7087  -1.9912  -1.9599  -0.2523   0.2303
     1.1233   1.9666   4.6185   4.7406   5.8672   5.8874   6.0985   6.4288
     6.6137   7.0777   7.1525   7.2903

          k = 0.4500 0.0000 0.0000 ( 14148 PWs)   bands (ev):

   -17.7575 -17.1802 -16.3714 -16.1905 -15.2826 -14.9306 -14.3813 -13.7108
   -13.2828 -12.1735 -10.9336  -9.6385  -9.6184  -8.6952  -8.4278  -8.0983
    -5.3144  -4.8343  -4.2465  -3.8589  -1.9901  -1.9834  -0.1007   0.1003
     0.8508   1.6312   4.7879   4.9549   5.7358   6.1421   6.2365   6.6320
     6.7389   7.3231   7.4178   7.4734

          k = 0.4667 0.0000 0.0000 ( 14142 PWs)   bands (ev):

   -17.5049 -16.9409 -16.4478 -16.2683 -15.4203 -14.8782 -14.4916 -13.6421
   -13.4004 -12.4430 -10.7316  -9.8597  -9.4668  -8.8297  -8.3829  -8.1480
    -5.0520  -4.6359  -4.2111  -4.0573  -2.0079  -1.9824   0.0407   0.0916
     0.6198   1.3072   4.9458   5.1638   5.6015   6.0776   6.5430   6.7238
     7.0808   7.3529   7.5843   7.7629

          k = 0.4833 0.0000 0.0000 ( 14154 PWs)   bands (ev):

   -17.2462 -16.7300 -16.6885 -16.3130 -15.4005 -15.0429 -14.3467 -13.8711
   -13.2003 -12.7052 -10.5220 -10.0851  -9.3058  -8.9843  -8.3227  -8.2026
    -4.7905  -4.4625  -4.2860  -4.2379  -2.0140  -1.9870   0.0586   0.2209
     0.5265   0.9987   5.0935   5.2995   5.5448   5.9023   6.7571   7.0215
     7.1627   7.4368   7.7890   7.8835

          k = 0.5000 0.0000 0.0000 ( 14126 PWs)   bands (ev):

   -16.9843 -16.9812 -16.4832 -16.4807 -15.2487 -15.2460 -14.1208 -14.1174
   -12.9608 -12.9567 -10.3071 -10.3053  -9.1452  -9.1434  -8.2623  -8.2603
    -4.5355  -4.5321  -4.3254  -4.3239  -2.0043  -2.0005   0.1423   0.1440
     0.7149   0.7187   5.2269   5.2291   5.6962   5.6981   6.9566   6.9571
     7.3908   7.3913   7.8065   7.8069

     Writing output data file ZGNR5.save

     init_run     :      2.81s CPU      3.02s WALL (       1 calls)
     electrons    :    497.77s CPU    502.30s WALL (       1 calls)

     Called by init_run:
     wfcinit      :      0.00s CPU      0.00s WALL (       1 calls)
     potinit      :      0.86s CPU      0.93s WALL (       1 calls)

     Called by electrons:
     c_bands      :    497.77s CPU    502.30s WALL (       1 calls)
     v_of_rho     :      0.41s CPU      0.44s WALL (       1 calls)
     newd         :      0.50s CPU      0.58s WALL (       1 calls)
     PAW_pot      :      0.40s CPU      0.40s WALL (       1 calls)

     Called by c_bands:
     init_us_2    :      0.09s CPU      0.14s WALL (      31 calls)
     cegterg      :    480.94s CPU    484.53s WALL (     135 calls)

     Called by sum_band:

     Called by *egterg:
     h_psi        :    220.28s CPU    221.03s WALL (    2595 calls)
     s_psi        :     47.38s CPU     47.45s WALL (    2595 calls)
     g_psi        :      1.01s CPU      1.01s WALL (    2429 calls)
     cdiaghg      :      9.28s CPU      9.30s WALL (    2460 calls)

     Called by h_psi:
     h_psi:pot    :    219.33s CPU    220.07s WALL (    2595 calls)
     h_psi:calbec :     50.58s CPU     50.65s WALL (    2595 calls)
     vloc_psi     :    121.23s CPU    121.84s WALL (    2595 calls)
     add_vuspsi   :     47.51s CPU     47.57s WALL (    2595 calls)

     General routines
     calbec       :     50.57s CPU     50.65s WALL (    2595 calls)
     fft          :      0.21s CPU      0.22s WALL (      13 calls)
     ffts         :      0.00s CPU      0.00s WALL (       1 calls)
     fftw         :     98.81s CPU     99.28s WALL (   59072 calls)
     interpolate  :      0.02s CPU      0.02s WALL (       1 calls)
     davcio       :      0.04s CPU      0.85s WALL (      31 calls)

     Parallel routines
     fft_scatter  :     10.65s CPU     10.70s WALL (   59086 calls)

     PWSCF        :  8m20.78s CPU     8m25.95s WALL


   This run was terminated on:  12:19:47   5Apr2019            

=------------------------------------------------------------------------------=
   JOB DONE.
=------------------------------------------------------------------------------=
