
     Program PWSCF v.6.0 (svn rev. 13079) starts on  5Apr2019 at 12: 7: 4 

     This program is part of the open-source Quantum ESPRESSO suite
     for quantum simulation of materials; please cite
         "P. Giannozzi et al., J. Phys.:Condens. Matter 21 395502 (2009);
          URL http://www.quantum-espresso.org", 
     in publications or presentations arising from this work. More details at
     http://www.quantum-espresso.org/quote

     Parallel version (MPI), running on     1 processors
     Waiting for input...
     Reading input from standard input

     Current dimensions of program PWSCF are:
     Max number of different atomic species (ntypx) = 10
     Max number of k-points (npk) =  40000
     Max angular momentum in pseudopotentials (lmaxx) =  3
               file C.pbe-n-kjpaw_psl.0.1.UPF: wavefunction(s)  2P renormalized
               file H.pbe-kjpaw_psl.0.1.UPF: wavefunction(s)  1S renormalized

     Subspace diagonalization in iterative solution of the eigenvalue problem:
     a serial algorithm will be used


     G-vector sticks info
     --------------------
     sticks:   dense  smooth     PW     G-vecs:    dense   smooth      PW
     Sum        5025    2251    691               382547   113595   19257



     bravais-lattice index     =            0
     lattice parameter (alat)  =       4.6487  a.u.
     unit-cell volume          =    3320.1806 (a.u.)^3
     number of atoms/cell      =           12
     number of atomic types    =            2
     number of electrons       =        42.00
     number of Kohn-Sham states=           36
     kinetic-energy cutoff     =      40.0000  Ry
     charge density cutoff     =     360.0000  Ry
     convergence threshold     =      1.0E-06
     mixing beta               =       0.7000
     number of iterations used =            8  plain     mixing
     Exchange-correlation      =  SLA  PW   PBX  PBC ( 1  4  3  4 0 0)

     celldm(1)=   4.648726  celldm(2)=   0.000000  celldm(3)=   0.000000
     celldm(4)=   0.000000  celldm(5)=   0.000000  celldm(6)=   0.000000

     crystal axes: (cart. coord. in units of alat)
               a(1) = (   1.000000   0.000000   0.000000 )  
               a(2) = (   0.000000   8.130081   0.000000 )  
               a(3) = (   0.000000   0.000000   4.065041 )  

     reciprocal axes: (cart. coord. in units 2 pi/alat)
               b(1) = (  1.000000  0.000000  0.000000 )  
               b(2) = (  0.000000  0.123000  0.000000 )  
               b(3) = (  0.000000  0.000000  0.246000 )  


     PseudoPot. # 1 for  C read from file:
     /mnt/hgfs/Linux_NTNU/QE_docs/PSEUDO_POTENTIALS/C.pbe-n-kjpaw_psl.0.1.UPF
     MD5 check sum: bf2aebf1cd97aced799cfc3ffd9ff9ea
     Pseudo is Projector augmented-wave + core cor, Zval =  4.0
     Generated using "atomic" code by A. Dal Corso  v.5.0.2 svn rev. 9415
     Shape of augmentation charge: BESSEL
     Using radial grid of 1073 points,  4 beta functions with: 
                l(1) =   0
                l(2) =   0
                l(3) =   1
                l(4) =   1
     Q(r) pseudized with 0 coefficients 


     PseudoPot. # 2 for  H read from file:
     /mnt/hgfs/Linux_NTNU/QE_docs/PSEUDO_POTENTIALS/H.pbe-kjpaw_psl.0.1.UPF
     MD5 check sum: fbb168fef676c0aaadbafd73f5b1efa8
     Pseudo is Projector augmented-wave, Zval =  1.0
     Generated using "atomic" code by A. Dal Corso  v.5.0.2 svn rev. 9415
     Shape of augmentation charge: PSQ
     Using radial grid of  929 points,  2 beta functions with: 
                l(1) =   0
                l(2) =   0
     Q(r) pseudized with 0 coefficients 


     atomic species   valence    mass     pseudopotential
        C              4.00    12.01100      C( 1.00)
        H              1.00     1.00000      H( 1.00)

      2 Sym. Ops. (no inversion) found



   Cartesian axes

     site n.     atom                  positions (alat units)
         1           C   tau(   1) = (   0.0000000   0.0000000   0.0000000  )
         2           C   tau(   2) = (   0.4999008   0.2886179   0.0000000  )
         3           C   tau(   3) = (   0.0000000  -0.5772358   0.0000000  )
         4           C   tau(   4) = (   0.4999008  -0.8658537   0.0000000  )
         5           C   tau(   5) = (   0.0000000  -1.7317073   0.0000000  )
         6           C   tau(   6) = (   0.4999008  -1.4430894   0.0000000  )
         7           C   tau(   7) = (   0.0000000  -2.3089431   0.0000000  )
         8           C   tau(   8) = (   0.4999008  -2.5975610   0.0000000  )
         9           C   tau(   9) = (   0.0000000  -3.4634146   0.0000000  )
        10           C   tau(  10) = (   0.4999008  -3.1747967   0.0000000  )
        11           H   tau(  11) = (   0.4999008   0.7357724   0.0000000  )
        12           H   tau(  12) = (   0.0000000  -3.9105691   0.0000000  )

     number of k points=    11  gaussian smearing, width (Ry)=  0.0300
                       cart. coord. in units 2pi/alat
        k(    1) = (   0.0000000   0.0000000   0.0000000), wk =   0.1000000
        k(    2) = (   0.0500000   0.0000000   0.0000000), wk =   0.2000000
        k(    3) = (   0.1000000   0.0000000   0.0000000), wk =   0.2000000
        k(    4) = (   0.1500000   0.0000000   0.0000000), wk =   0.2000000
        k(    5) = (   0.2000000   0.0000000   0.0000000), wk =   0.2000000
        k(    6) = (   0.2500000   0.0000000   0.0000000), wk =   0.2000000
        k(    7) = (   0.3000000   0.0000000   0.0000000), wk =   0.2000000
        k(    8) = (   0.3500000   0.0000000   0.0000000), wk =   0.2000000
        k(    9) = (   0.4000000   0.0000000   0.0000000), wk =   0.2000000
        k(   10) = (   0.4500000   0.0000000   0.0000000), wk =   0.2000000
        k(   11) = (  -0.5000000   0.0000000   0.0000000), wk =   0.1000000

     Dense  grid:   382547 G-vectors     FFT dimensions: (  30, 240, 120)

     Smooth grid:   113595 G-vectors     FFT dimensions: (  20, 160,  80)

     Estimated max dynamical RAM per process >     391.03Mb

     Initial potential from superposition of free atoms

     starting charge   41.99956, renormalised to   42.00000

     negative rho (up, down):  1.942E-05 0.000E+00
     Starting wfc are   42 randomized atomic wfcs
     Checking if some PAW data can be deallocated... 

     total cpu time spent up to now is       12.6 secs

     per-process dynamical memory:   275.4 Mb

     Self-consistent Calculation

     iteration #  1     ecut=    40.00 Ry     beta=0.70
     Davidson diagonalization with overlap
     ethr =  1.00E-02,  avg # of iterations =  5.5

     total cpu time spent up to now is       44.3 secs

     total energy              =    -186.49688599 Ry
     Harris-Foulkes estimate   =    -187.28482899 Ry
     estimated scf accuracy    <       1.24519099 Ry

     iteration #  2     ecut=    40.00 Ry     beta=0.70
     Davidson diagonalization with overlap
     ethr =  2.96E-03,  avg # of iterations =  7.9

     total cpu time spent up to now is       66.0 secs

     total energy              =    -186.66415212 Ry
     Harris-Foulkes estimate   =    -186.70656291 Ry
     estimated scf accuracy    <       0.06804126 Ry

     iteration #  3     ecut=    40.00 Ry     beta=0.70
     Davidson diagonalization with overlap
     ethr =  1.62E-04,  avg # of iterations =  8.5

     total cpu time spent up to now is       96.8 secs

     total energy              =    -186.70569266 Ry
     Harris-Foulkes estimate   =    -186.75911294 Ry
     estimated scf accuracy    <       0.12742267 Ry

     iteration #  4     ecut=    40.00 Ry     beta=0.70
     Davidson diagonalization with overlap
     ethr =  1.62E-04,  avg # of iterations =  7.5

     negative rho (up, down):  3.920E-07 0.000E+00

     total cpu time spent up to now is      116.6 secs

     total energy              =    -186.72190356 Ry
     Harris-Foulkes estimate   =    -186.78357974 Ry
     estimated scf accuracy    <       0.30984065 Ry

     iteration #  5     ecut=    40.00 Ry     beta=0.70
     Davidson diagonalization with overlap
     ethr =  1.62E-04,  avg # of iterations =  6.4

     negative rho (up, down):  6.021E-07 0.000E+00

     total cpu time spent up to now is      133.5 secs

     total energy              =    -186.73905383 Ry
     Harris-Foulkes estimate   =    -186.74439670 Ry
     estimated scf accuracy    <       0.01239601 Ry

     iteration #  6     ecut=    40.00 Ry     beta=0.70
     Davidson diagonalization with overlap
     ethr =  2.95E-05,  avg # of iterations =  5.5

     negative rho (up, down):  4.883E-06 0.000E+00

     total cpu time spent up to now is      151.5 secs

     total energy              =    -186.74148213 Ry
     Harris-Foulkes estimate   =    -186.74314750 Ry
     estimated scf accuracy    <       0.00698097 Ry

     iteration #  7     ecut=    40.00 Ry     beta=0.70
     Davidson diagonalization with overlap
     ethr =  1.66E-05,  avg # of iterations =  2.5

     negative rho (up, down):  1.706E-05 0.000E+00

     total cpu time spent up to now is      165.5 secs

     total energy              =    -186.74249993 Ry
     Harris-Foulkes estimate   =    -186.74270329 Ry
     estimated scf accuracy    <       0.00102793 Ry

     iteration #  8     ecut=    40.00 Ry     beta=0.70
     Davidson diagonalization with overlap
     ethr =  2.45E-06,  avg # of iterations =  7.1

     negative rho (up, down):  1.884E-05 0.000E+00

     total cpu time spent up to now is      191.5 secs

     total energy              =    -186.74291863 Ry
     Harris-Foulkes estimate   =    -186.74302157 Ry
     estimated scf accuracy    <       0.00035350 Ry

     iteration #  9     ecut=    40.00 Ry     beta=0.70
     Davidson diagonalization with overlap
     ethr =  8.42E-07,  avg # of iterations =  1.6

     negative rho (up, down):  1.878E-05 0.000E+00

     total cpu time spent up to now is      205.3 secs

     total energy              =    -186.74292932 Ry
     Harris-Foulkes estimate   =    -186.74295366 Ry
     estimated scf accuracy    <       0.00006011 Ry

     iteration # 10     ecut=    40.00 Ry     beta=0.70
     Davidson diagonalization with overlap
     ethr =  1.43E-07,  avg # of iterations =  3.9

     negative rho (up, down):  2.046E-05 0.000E+00

     total cpu time spent up to now is      223.0 secs

     total energy              =    -186.74294677 Ry
     Harris-Foulkes estimate   =    -186.74294906 Ry
     estimated scf accuracy    <       0.00000638 Ry

     iteration # 11     ecut=    40.00 Ry     beta=0.70
     Davidson diagonalization with overlap
     ethr =  1.52E-08,  avg # of iterations =  4.0

     negative rho (up, down):  2.127E-05 0.000E+00

     total cpu time spent up to now is      242.3 secs

     total energy              =    -186.74294920 Ry
     Harris-Foulkes estimate   =    -186.74295115 Ry
     estimated scf accuracy    <       0.00000748 Ry

     iteration # 12     ecut=    40.00 Ry     beta=0.70
     Davidson diagonalization with overlap
     ethr =  1.52E-08,  avg # of iterations =  1.0

     negative rho (up, down):  2.174E-05 0.000E+00

     total cpu time spent up to now is      255.8 secs

     End of self-consistent calculation

          k = 0.0000 0.0000 0.0000 ( 14235 PWs)   bands (ev):

   -21.2579 -20.6346 -19.6586 -18.3674 -16.9278 -14.3664 -12.4819 -10.3761
    -9.3119  -8.6129  -8.3453  -8.1266  -7.5428  -7.5415  -6.7130  -6.6191
    -6.2001  -5.8183  -5.4087  -5.1600  -4.8783   0.3917   1.1086   1.4401
     1.4463   1.7980   2.1432   2.6315   2.7376   2.8385   2.8798   3.1618
     3.3861   3.8695   4.0366   4.1178

          k = 0.0500 0.0000 0.0000 ( 14265 PWs)   bands (ev):

   -21.2136 -20.5905 -19.6152 -18.3251 -16.8876 -14.3298 -12.4514 -10.3572
    -9.2588  -8.5603  -8.3565  -8.3221  -7.7220  -7.4909  -6.9541  -6.5937
    -6.1483  -6.0235  -5.4556  -5.3398  -4.8252   0.3833   1.1649   1.4987
     1.5015   1.8133   2.1982   2.6908   2.7877   2.8943   2.9223   3.2147
     3.4454   3.9210   4.0890   4.1779

          k = 0.1000 0.0000 0.0000 ( 14203 PWs)   bands (ev):

   -21.0805 -20.4584 -19.4849 -18.1983 -16.7672 -14.2221 -12.3630 -10.3082
    -9.0999  -8.8599  -8.4967  -8.4031  -8.1185  -7.5020  -7.3358  -6.6559
    -6.5525  -5.9938  -5.8256  -5.6295  -4.6666   0.3479   1.3330   1.6649
     1.6745   1.8381   2.3618   2.8674   2.9333   3.0504   3.0610   3.3788
     3.6221   4.0642   4.2416   4.3584

          k = 0.1500 0.0000 0.0000 ( 14191 PWs)   bands (ev):

   -20.8593 -20.2387 -19.2683 -17.9875 -16.5669 -14.0504 -12.2296 -10.2744
    -9.6136  -9.1340  -8.8365  -8.3061  -8.2417  -8.1428  -7.2386  -7.0795
    -6.9025  -6.4206  -5.9424  -5.7390  -4.4039   0.2553   1.6097   1.8093
     1.9306   1.9680   2.6318   3.1477   3.1566   3.2747   3.3396   3.6640
     3.9133   4.2203   4.4905   4.6587

          k = 0.2000 0.0000 0.0000 ( 14191 PWs)   bands (ev):

   -20.5505 -19.9321 -18.9663 -17.6939 -16.2876 -13.8350 -12.0944 -10.6409
   -10.1940  -9.9647  -8.9668  -8.6993  -8.4707  -7.7822  -7.7383  -7.6039
    -6.7581  -6.7259  -6.3811  -5.3889  -4.0406   0.0610   1.6407   1.9898
     2.2881   2.3804   3.0089   3.2852   3.5491   3.6159   3.7361   4.0737
     4.2317   4.3163   4.8399   4.9890

          k = 0.2500 0.0000 0.0000 ( 14151 PWs)   bands (ev):

   -20.1552 -19.5398 -18.5802 -17.3192 -15.9303 -13.6420 -12.1309 -11.4670
   -10.7312 -10.6486  -9.5183  -9.2816  -8.5053  -8.0059  -7.8623  -7.3260
    -7.0217  -6.9252  -6.2820  -4.9531  -3.5831  -0.2775   1.2751   2.4648
     2.7210   2.9130   2.9680   3.4975   4.0339   4.0491   4.2603   4.4746
     4.6058   4.7528   4.8273   5.2994

          k = 0.3000 0.0000 0.0000 ( 14153 PWs)   bands (ev):

   -19.6750 -19.0637 -18.1125 -16.8677 -15.4979 -13.7075 -12.6721 -12.0477
   -11.5731 -10.8425 -10.4125  -9.5126  -9.1370  -7.8870  -7.5484  -7.4473
    -7.3361  -6.7817  -5.7607  -4.4532  -3.0464  -0.7716   0.7286   2.2695
     3.0204   3.2103   3.5667   3.6864   4.1054   4.6055   4.8099   4.8156
     4.9146   5.0457   5.2581   5.4386

          k = 0.3500 0.0000 0.0000 ( 14130 PWs)   bands (ev):

   -19.1123 -18.5065 -17.5680 -16.3519 -15.0002 -14.2850 -13.5210 -12.6394
   -11.8753 -11.5009 -10.4613 -10.4176  -8.9650  -8.2292  -7.9121  -7.7132
    -6.8026  -6.1627  -5.1883  -3.9458  -2.4732  -1.3666   0.1074   1.4399
     2.7147   3.6305   3.7423   3.7442   4.3411   4.8369   5.2534   5.5480
     5.6917   5.7703   6.0238   6.1265

          k = 0.4000 0.0000 0.0000 ( 14154 PWs)   bands (ev):

   -18.4706 -17.8737 -16.9602 -15.8643 -15.0113 -14.6406 -14.1994 -13.5503
   -12.4203 -11.5029 -11.3000 -10.0792  -8.9288  -8.7407  -8.1386  -7.9804
    -6.0843  -5.4942  -4.6275  -3.6201  -2.0240  -1.8727  -0.3201   0.6419
     1.7322   2.6634   4.2450   4.3250   5.2334   5.6664   5.8597   6.3223
     6.3455   6.4275   6.6127   6.6418

          k = 0.4500 0.0000 0.0000 ( 14148 PWs)   bands (ev):

   -17.7559 -17.1781 -16.3693 -16.1889 -15.2806 -14.9287 -14.3794 -13.7090
   -13.2808 -12.1717 -10.9317  -9.6361  -9.6169  -8.6932  -8.4263  -8.0966
    -5.3134  -4.8326  -4.2449  -3.8578  -1.9884  -1.9824  -0.0996   0.1018
     0.8525   1.6326   4.7887   4.9556   5.7370   6.1430   6.2365   6.6326
     6.7390   7.3236   7.4180   7.4741

          k =-0.5000 0.0000 0.0000 ( 14126 PWs)   bands (ev):

   -16.9827 -16.9796 -16.4811 -16.4786 -15.2466 -15.2442 -14.1189 -14.1156
   -12.9589 -12.9548 -10.3051 -10.3035  -9.1430  -9.1416  -8.2600  -8.2594
    -4.5342  -4.5311  -4.3237  -4.3223  -2.0013  -2.0007   0.1437   0.1452
     0.7165   0.7202   5.2287   5.2294   5.6975   5.6986   6.9574   6.9579
     7.3907   7.3911   7.8066   7.8071

     the Fermi energy is    -1.9707 ev

!    total energy              =    -186.74294958 Ry
     Harris-Foulkes estimate   =    -186.74294974 Ry
     estimated scf accuracy    <       0.00000022 Ry

     total all-electron energy =      -764.383956 Ry

     The total energy is the sum of the following terms:

     one-electron contribution =    -721.22776467 Ry
     hartree contribution      =     368.77753697 Ry
     xc contribution           =     -42.78878773 Ry
     ewald contribution        =     275.04472832 Ry
     one-center paw contrib.   =     -66.53977386 Ry
     smearing contrib. (-TS)   =      -0.00888861 Ry

     convergence has been achieved in  12 iterations

     Writing output data file ZGNR5.save

     init_run     :      8.98s CPU     12.36s WALL (       1 calls)
     electrons    :    237.52s CPU    243.44s WALL (       1 calls)

     Called by init_run:
     wfcinit      :      5.72s CPU      5.76s WALL (       1 calls)
     potinit      :      1.26s CPU      1.88s WALL (       1 calls)

     Called by electrons:
     c_bands      :    197.62s CPU    200.10s WALL (      12 calls)
     sum_band     :     25.83s CPU     27.95s WALL (      12 calls)
     v_of_rho     :      4.50s CPU      5.04s WALL (      13 calls)
     newd         :      5.72s CPU      8.53s WALL (      13 calls)
     PAW_pot      :      4.04s CPU      4.05s WALL (      13 calls)
     mix_rho      :      0.46s CPU      0.46s WALL (      12 calls)

     Called by c_bands:
     init_us_2    :      0.95s CPU      1.02s WALL (     275 calls)
     cegterg      :    195.42s CPU    197.70s WALL (     132 calls)

     Called by sum_band:
     sum_band:bec :      0.01s CPU      0.01s WALL (     132 calls)
     addusdens    :      4.90s CPU      6.95s WALL (      12 calls)

     Called by *egterg:
     h_psi        :    102.82s CPU    103.02s WALL (     817 calls)
     s_psi        :     22.17s CPU     22.19s WALL (     817 calls)
     g_psi        :      0.38s CPU      0.38s WALL (     674 calls)
     cdiaghg      :      2.79s CPU      2.81s WALL (     806 calls)

     Called by h_psi:
     h_psi:pot    :    102.35s CPU    102.54s WALL (     817 calls)
     h_psi:calbec :     23.78s CPU     23.80s WALL (     817 calls)
     vloc_psi     :     56.41s CPU     56.57s WALL (     817 calls)
     add_vuspsi   :     22.15s CPU     22.17s WALL (     817 calls)

     General routines
     calbec       :     31.64s CPU     31.67s WALL (     949 calls)
     fft          :      2.57s CPU      2.88s WALL (     204 calls)
     ffts         :      0.06s CPU      0.06s WALL (      25 calls)
     fftw         :     54.94s CPU     55.09s WALL (   33238 calls)
     interpolate  :      0.43s CPU      0.43s WALL (      25 calls)
     davcio       :      0.03s CPU      0.33s WALL (      11 calls)

     Parallel routines
     fft_scatter  :      6.46s CPU      6.55s WALL (   33467 calls)

     PWSCF        :  4m 6.70s CPU     4m16.79s WALL


   This run was terminated on:  12:11:21   5Apr2019            

=------------------------------------------------------------------------------=
   JOB DONE.
=------------------------------------------------------------------------------=
