
     Program PWSCF v.6.0 (svn rev. 13079) starts on  5Apr2019 at 20:19:47 

     This program is part of the open-source Quantum ESPRESSO suite
     for quantum simulation of materials; please cite
         "P. Giannozzi et al., J. Phys.:Condens. Matter 21 395502 (2009);
          URL http://www.quantum-espresso.org", 
     in publications or presentations arising from this work. More details at
     http://www.quantum-espresso.org/quote

     Parallel version (MPI), running on     1 processors
     Waiting for input...
     Reading input from standard input

     Current dimensions of program PWSCF are:
     Max number of different atomic species (ntypx) = 10
     Max number of k-points (npk) =  40000
     Max angular momentum in pseudopotentials (lmaxx) =  3

     Atomic positions and unit cell read from directory:
     ./ZGNR9.save/

               file C.pbe-n-kjpaw_psl.0.1.UPF: wavefunction(s)  2P renormalized
               file H.pbe-kjpaw_psl.0.1.UPF: wavefunction(s)  1S renormalized

     Subspace diagonalization in iterative solution of the eigenvalue problem:
     a serial algorithm will be used


     G-vector sticks info
     --------------------
     sticks:   dense  smooth     PW     G-vecs:    dense   smooth      PW
     Sum       10049    4499   1383              1530341   454379   76859



     bravais-lattice index     =            0
     lattice parameter (alat)  =       4.6487  a.u.
     unit-cell volume          =   13280.7225 (a.u.)^3
     number of atoms/cell      =           20
     number of atomic types    =            2
     number of electrons       =        74.00
     number of Kohn-Sham states=           60
     kinetic-energy cutoff     =      40.0000  Ry
     charge density cutoff     =     360.0000  Ry
     Exchange-correlation      =  SLA  PW   PBX  PBC ( 1  4  3  4 0 0)

     celldm(1)=   4.648726  celldm(2)=   0.000000  celldm(3)=   0.000000
     celldm(4)=   0.000000  celldm(5)=   0.000000  celldm(6)=   0.000000

     crystal axes: (cart. coord. in units of alat)
               a(1) = (   1.000000   0.000000   0.000000 )  
               a(2) = (   0.000000  16.260163   0.000000 )  
               a(3) = (   0.000000   0.000000   8.130081 )  

     reciprocal axes: (cart. coord. in units 2 pi/alat)
               b(1) = (  1.000000  0.000000  0.000000 )  
               b(2) = (  0.000000  0.061500  0.000000 )  
               b(3) = (  0.000000  0.000000  0.123000 )  


     PseudoPot. # 1 for  C read from file:
     /mnt/hgfs/Linux_NTNU/QE_docs/PSEUDO_POTENTIALS/C.pbe-n-kjpaw_psl.0.1.UPF
     MD5 check sum: bf2aebf1cd97aced799cfc3ffd9ff9ea
     Pseudo is Projector augmented-wave + core cor, Zval =  4.0
     Generated using "atomic" code by A. Dal Corso  v.5.0.2 svn rev. 9415
     Shape of augmentation charge: BESSEL
     Using radial grid of 1073 points,  4 beta functions with: 
                l(1) =   0
                l(2) =   0
                l(3) =   1
                l(4) =   1
     Q(r) pseudized with 0 coefficients 


     PseudoPot. # 2 for  H read from file:
     /mnt/hgfs/Linux_NTNU/QE_docs/PSEUDO_POTENTIALS/H.pbe-kjpaw_psl.0.1.UPF
     MD5 check sum: fbb168fef676c0aaadbafd73f5b1efa8
     Pseudo is Projector augmented-wave, Zval =  1.0
     Generated using "atomic" code by A. Dal Corso  v.5.0.2 svn rev. 9415
     Shape of augmentation charge: PSQ
     Using radial grid of  929 points,  2 beta functions with: 
                l(1) =   0
                l(2) =   0
     Q(r) pseudized with 0 coefficients 


     atomic species   valence    mass     pseudopotential
        C              4.00    12.01100      C( 1.00)
        H              1.00     1.00000      H( 1.00)

      2 Sym. Ops. (no inversion) found



   Cartesian axes

     site n.     atom                  positions (alat units)
         1           C   tau(   1) = (   0.0000000   0.0000000   0.0000000  )
         2           C   tau(   2) = (   0.4999008   0.2886179   0.0000000  )
         3           C   tau(   3) = (   0.0000000  -0.5772358   0.0000000  )
         4           C   tau(   4) = (   0.4999008  -0.8658537   0.0000000  )
         5           C   tau(   5) = (   0.0000000  -1.7317073   0.0000000  )
         6           C   tau(   6) = (   0.4999008  -1.4430894   0.0000000  )
         7           C   tau(   7) = (   0.0000000  -2.3089431   0.0000000  )
         8           C   tau(   8) = (   0.4999008  -2.5975610   0.0000000  )
         9           C   tau(   9) = (   0.0000000  -3.4634146   0.0000000  )
        10           C   tau(  10) = (   0.4999008  -3.1747967   0.0000000  )
        11           C   tau(  11) = (   0.0000000  -4.0406504   0.0000000  )
        12           C   tau(  12) = (   0.4999008  -4.3292683   0.0000000  )
        13           C   tau(  13) = (   0.0000000  -5.1951220   0.0000000  )
        14           C   tau(  14) = (   0.4999008  -4.9065041   0.0000000  )
        15           C   tau(  15) = (   0.0000000  -5.7723577   0.0000000  )
        16           C   tau(  16) = (   0.4999008  -6.0609756   0.0000000  )
        17           C   tau(  17) = (   0.0000000  -6.9268293   0.0000000  )
        18           C   tau(  18) = (   0.4999008  -6.6382114   0.0000000  )
        19           H   tau(  19) = (   0.4999008   0.7357724   0.0000000  )
        20           H   tau(  20) = (   0.0000000  -7.3739837   0.0000000  )

     number of k points=    31  gaussian smearing, width (Ry)=  0.0300
                       cart. coord. in units 2pi/alat
        k(    1) = (   0.0000000   0.0000000   0.0000000), wk =   0.0645161
        k(    2) = (   0.0166667   0.0000000   0.0000000), wk =   0.0645161
        k(    3) = (   0.0333333   0.0000000   0.0000000), wk =   0.0645161
        k(    4) = (   0.0500000   0.0000000   0.0000000), wk =   0.0645161
        k(    5) = (   0.0666667   0.0000000   0.0000000), wk =   0.0645161
        k(    6) = (   0.0833333   0.0000000   0.0000000), wk =   0.0645161
        k(    7) = (   0.1000000   0.0000000   0.0000000), wk =   0.0645161
        k(    8) = (   0.1166667   0.0000000   0.0000000), wk =   0.0645161
        k(    9) = (   0.1333333   0.0000000   0.0000000), wk =   0.0645161
        k(   10) = (   0.1500000   0.0000000   0.0000000), wk =   0.0645161
        k(   11) = (   0.1666667   0.0000000   0.0000000), wk =   0.0645161
        k(   12) = (   0.1833333   0.0000000   0.0000000), wk =   0.0645161
        k(   13) = (   0.2000000   0.0000000   0.0000000), wk =   0.0645161
        k(   14) = (   0.2166667   0.0000000   0.0000000), wk =   0.0645161
        k(   15) = (   0.2333333   0.0000000   0.0000000), wk =   0.0645161
        k(   16) = (   0.2500000   0.0000000   0.0000000), wk =   0.0645161
        k(   17) = (   0.2666667   0.0000000   0.0000000), wk =   0.0645161
        k(   18) = (   0.2833333   0.0000000   0.0000000), wk =   0.0645161
        k(   19) = (   0.3000000   0.0000000   0.0000000), wk =   0.0645161
        k(   20) = (   0.3166667   0.0000000   0.0000000), wk =   0.0645161
        k(   21) = (   0.3333333   0.0000000   0.0000000), wk =   0.0645161
        k(   22) = (   0.3500000   0.0000000   0.0000000), wk =   0.0645161
        k(   23) = (   0.3666667   0.0000000   0.0000000), wk =   0.0645161
        k(   24) = (   0.3833333   0.0000000   0.0000000), wk =   0.0645161
        k(   25) = (   0.4000000   0.0000000   0.0000000), wk =   0.0645161
        k(   26) = (   0.4166667   0.0000000   0.0000000), wk =   0.0645161
        k(   27) = (   0.4333333   0.0000000   0.0000000), wk =   0.0645161
        k(   28) = (   0.4500000   0.0000000   0.0000000), wk =   0.0645161
        k(   29) = (   0.4666667   0.0000000   0.0000000), wk =   0.0645161
        k(   30) = (   0.4833333   0.0000000   0.0000000), wk =   0.0645161
        k(   31) = (   0.5000000   0.0000000   0.0000000), wk =   0.0645161

     Dense  grid:  1530341 G-vectors     FFT dimensions: (  30, 480, 240)

     Smooth grid:   454379 G-vectors     FFT dimensions: (  20, 320, 160)

     Estimated max dynamical RAM per process >    1039.59Mb

     The potential is recalculated from file :
     ./ZGNR9.save/charge-density.dat


     negative rho (up, down):  1.946E-04 0.000E+00
     Starting wfc are   74 randomized atomic wfcs
     Checking if some PAW data can be deallocated... 

     Band Structure Calculation
     Davidson diagonalization with overlap
     c_bands:  1 eigenvalues not converged
     c_bands:  1 eigenvalues not converged
     c_bands:  1 eigenvalues not converged
     c_bands:  1 eigenvalues not converged
     c_bands:  1 eigenvalues not converged
     c_bands:  1 eigenvalues not converged
     c_bands:  2 eigenvalues not converged
     c_bands:  1 eigenvalues not converged
     c_bands:  1 eigenvalues not converged
     c_bands:  1 eigenvalues not converged
     c_bands:  1 eigenvalues not converged
     c_bands:  1 eigenvalues not converged
     c_bands:  1 eigenvalues not converged
     c_bands:  1 eigenvalues not converged
     c_bands:  1 eigenvalues not converged
     c_bands:  1 eigenvalues not converged
     c_bands:  2 eigenvalues not converged

     ethr =  1.35E-09,  avg # of iterations =104.0

     total cpu time spent up to now is     6859.2 secs

     End of band structure calculation

          k = 0.0000 0.0000 0.0000 ( 56949 PWs)   bands (ev):

   -22.6201 -22.3987 -22.0560 -21.5915 -21.0059 -20.3057 -19.5023 -18.6251
   -17.7931 -15.9582 -14.9396 -13.7376 -12.4632 -11.1710 -10.6911 -10.4369
   -10.0430  -9.9108  -9.5132  -9.4871  -9.2693  -8.9423  -8.8558  -8.7366
    -8.5177  -8.0899  -8.0163  -7.7050  -7.4756  -7.2505  -6.9487  -6.8811
    -6.5099  -6.4134  -6.3487  -6.2442  -5.7459  -1.1278  -0.3453   0.1284
     0.1869   0.2632   0.4763   0.5847   0.6514   0.7935   0.8071   0.9077
     0.9456   0.9818   1.0213   1.0469   1.1278   1.1441   1.2250   1.2464
     1.2868   1.4766   1.6561   1.6634

          k = 0.0167 0.0000 0.0000 ( 56937 PWs)   bands (ev):

   -22.6152 -22.3938 -22.0511 -21.5866 -21.0011 -20.3009 -19.4976 -18.6206
   -17.7888 -15.9541 -14.9358 -13.7344 -12.4607 -11.1696 -10.6852 -10.4311
   -10.0371  -9.9114  -9.5093  -9.5074  -9.2914  -8.9647  -8.8501  -8.7397
    -8.5390  -8.0842  -8.0359  -7.7168  -7.4887  -7.2448  -6.9846  -6.8724
    -6.5336  -6.4076  -6.3546  -6.2643  -5.7400  -1.1290  -0.3461   0.1350
     0.1931   0.2694   0.4828   0.5869   0.6582   0.8001   0.8136   0.9145
     0.9525   0.9885   1.0256   1.0537   1.1347   1.1505   1.2317   1.2532
     1.2937   1.4831   1.6624   1.6695

          k = 0.0333 0.0000 0.0000 ( 56949 PWs)   bands (ev):

   -22.6004 -22.3790 -22.0364 -21.5720 -20.9866 -20.2866 -19.4835 -18.6069
   -17.7757 -15.9417 -14.9245 -13.7246 -12.4533 -11.1658 -10.6675 -10.4134
   -10.0196  -9.9134  -9.5755  -9.4900  -9.3569  -9.0308  -8.8329  -8.7502
    -8.6022  -8.0931  -8.0671  -7.7558  -7.5237  -7.2278  -7.0673  -6.8711
    -6.6014  -6.3903  -6.3750  -6.3239  -5.7222  -1.1327  -0.3486   0.1546
     0.2118   0.2882   0.5022   0.5932   0.6786   0.8200   0.8332   0.9348
     0.9729   1.0088   1.0388   1.0743   1.1551   1.1696   1.2519   1.2737
     1.3142   1.5025   1.6810   1.6877

          k = 0.0500 0.0000 0.0000 ( 56935 PWs)   bands (ev):

   -22.5757 -22.3544 -22.0118 -21.5476 -20.9624 -20.2627 -19.4601 -18.5841
   -17.7538 -15.9212 -14.9057 -13.7085 -12.4412 -11.1597 -10.6379 -10.3840
    -9.9904  -9.9179  -9.6837  -9.4636  -9.4610  -9.1379  -8.8042  -8.7715
    -8.7047  -8.1837  -8.0387  -7.8312  -7.5700  -7.1994  -7.1835  -6.8888
    -6.7068  -6.4205  -6.4133  -6.3616  -5.6926  -1.1393  -0.3531   0.1873
     0.2429   0.3195   0.5345   0.6021   0.7126   0.8532   0.8658   0.9686
     1.0070   1.0426   1.0615   1.1087   1.1892   1.2015   1.2856   1.3078
     1.3484   1.5349   1.7114   1.7181

          k = 0.0667 0.0000 0.0000 ( 56917 PWs)   bands (ev):

   -22.5411 -22.3199 -21.9775 -21.5134 -20.9285 -20.2293 -19.4273 -18.5522
   -17.7233 -15.8926 -14.8795 -13.6862 -12.4246 -11.1522 -10.5966 -10.3428
    -9.9495  -9.9273  -9.8308  -9.6078  -9.4205  -9.2824  -8.8423  -8.8102
    -8.7641  -8.2993  -7.9989  -7.9491  -7.6198  -7.3295  -7.1597  -6.9271
    -6.8441  -6.5492  -6.4715  -6.3214  -5.6511  -1.1492  -0.3606   0.2330
     0.2863   0.3633   0.5797   0.6115   0.7602   0.8996   0.9113   1.0159
     1.0547   1.0899   1.0945   1.1567   1.2369   1.2459   1.3328   1.3556
     1.3962   1.5801   1.7517   1.7609

          k = 0.0833 0.0000 0.0000 ( 56889 PWs)   bands (ev):

   -22.4967 -22.2756 -21.9333 -21.4695 -20.8850 -20.1864 -19.3852 -18.5113
   -17.6840 -15.8561 -14.8462 -13.6580 -12.4043 -11.1445 -10.5435 -10.2900
   -10.0132  -9.9483  -9.8970  -9.7820  -9.4602  -9.3685  -9.0090  -8.8782
    -8.7126  -8.4256  -8.1058  -7.9480  -7.6750  -7.5011  -7.1089  -7.0068
    -6.9898  -6.7018  -6.5489  -6.2699  -5.5979  -1.1635  -0.3719   0.2915
     0.3418   0.4195   0.6184   0.6378   0.8214   0.9591   0.9696   1.0768
     1.1159   1.1393   1.1508   1.2185   1.2982   1.3024   1.3938   1.4170
     1.4577   1.6381   1.7979   1.8161

          k = 0.1000 0.0000 0.0000 ( 56813 PWs)   bands (ev):

   -22.4425 -22.2214 -21.8794 -21.4159 -20.8319 -20.1339 -19.3337 -18.4612
   -17.6361 -15.8120 -14.8060 -13.6245 -12.3810 -11.1384 -10.4787 -10.2264
   -10.2254 -10.0346  -9.9339  -9.8330  -9.6661  -9.3051  -9.1967  -8.9912
    -8.6499  -8.5454  -8.2927  -7.8858  -7.7445  -7.6917  -7.1844  -7.0909
    -7.0469  -6.8599  -6.6450  -6.2071  -5.5330  -1.1829  -0.3883   0.3627
     0.4093   0.4882   0.6195   0.7089   0.8962   1.0318   1.0404   1.1510
     1.1907   1.1971   1.2252   1.2940   1.3703   1.3732   1.4684   1.4920
     1.5327   1.7089   1.8421   1.8839

          k = 0.1167 0.0000 0.0000 ( 56837 PWs)   bands (ev):

   -22.3784 -22.1575 -21.8157 -21.3526 -20.7692 -20.0720 -19.2730 -18.4022
   -17.5794 -15.7604 -14.7594 -13.5862 -12.3561 -11.1372 -10.4659 -10.4022
   -10.2520 -10.1493 -10.0038  -9.8946  -9.7574  -9.3932  -9.2303  -9.1556
    -8.6538  -8.5760  -8.4997  -7.8910  -7.8434  -7.8127  -7.3608  -7.2520
    -6.9966  -6.9740  -6.7590  -6.1331  -5.4564  -1.2088  -0.4114   0.4463
     0.4886   0.5694   0.6113   0.7928   0.9846   1.1177   1.1232   1.2388
     1.2691   1.2788   1.3131   1.3833   1.4479   1.4617   1.5567   1.5807
     1.6214   1.7924   1.8765   1.9639

          k = 0.1333 0.0000 0.0000 ( 56833 PWs)   bands (ev):

   -22.3045 -22.0838 -21.7423 -21.2797 -20.6969 -20.0007 -19.2030 -18.3342
   -17.5141 -15.7019 -14.7069 -13.5441 -12.3316 -11.1470 -10.7265 -10.5061
   -10.3141 -10.1388 -10.0992 -10.0617  -9.6705  -9.5818  -9.3589  -9.1443
    -8.7690  -8.7147  -8.4910  -8.0823  -7.9915  -7.7286  -7.5139  -7.4682
    -7.1120  -6.8903  -6.8897  -6.0481  -5.3683  -1.2425  -0.4427   0.5419
     0.5793   0.5907   0.6632   0.8897   1.0866   1.2163   1.2165   1.3400
     1.3561   1.3799   1.4146   1.4863   1.5317   1.5639   1.6588   1.6830
     1.7236   1.8886   1.8995   2.0562

          k = 0.1500 0.0000 0.0000 ( 56811 PWs)   bands (ev):

   -22.2209 -22.0003 -21.6592 -21.1970 -20.6150 -19.9199 -19.1238 -18.2572
   -17.4402 -15.6370 -14.6494 -13.4999 -12.3109 -11.1802 -11.0008 -10.7777
   -10.3896 -10.2507 -10.2145  -9.9626  -9.7517  -9.5814  -9.5722  -9.0471
    -8.9222  -8.9180  -8.3951  -8.2452  -8.1956  -7.7165  -7.6339  -7.6336
    -7.2246  -7.0364  -6.7960  -5.9524  -5.2687  -1.2857  -0.4841   0.5552
     0.6489   0.6812   0.7699   0.9996   1.2021   1.3155   1.3285   1.4546
     1.4581   1.4925   1.5296   1.6030   1.6136   1.6797   1.7746   1.7989
     1.8393   1.9204   1.9974   2.1594

          k = 0.1667 0.0000 0.0000 ( 56789 PWs)   bands (ev):

   -22.1275 -21.9072 -21.5664 -21.1048 -20.5236 -19.8298 -19.0355 -18.1713
   -17.3576 -15.5665 -14.5879 -13.4556 -12.2994 -11.3192 -11.2183 -11.0599
   -10.6356 -10.4526 -10.1035  -9.9195  -9.8522  -9.8036  -9.4628  -9.1193
    -9.0995  -8.9390  -8.4414  -8.3693  -8.2884  -7.9817  -7.7307  -7.5286
    -7.3432  -7.1978  -6.6914  -5.8461  -5.1578  -1.3398  -0.5372   0.5026
     0.7667   0.7939   0.8899   1.1225   1.3312   1.4061   1.4534   1.5746
     1.5827   1.6099   1.6583   1.6872   1.7334   1.8091   1.9040   1.9285
     1.9651   1.9684   2.1190   2.2705

          k = 0.1833 0.0000 0.0000 ( 56805 PWs)   bands (ev):

   -22.0244 -21.8043 -21.4639 -21.0030 -20.4228 -19.7303 -18.9380 -18.0767
   -17.2665 -15.4916 -14.5244 -13.4152 -12.3065 -11.6079 -11.3514 -11.3453
   -10.8656 -10.6781 -10.1155 -10.0045  -9.9811  -9.7305  -9.3625  -9.3423
    -9.2353  -8.8200  -8.7091  -8.4736  -8.2453  -8.1712  -7.8191  -7.4709
    -7.4132  -7.3729  -6.5767  -5.7297  -5.0358  -1.4066  -0.6039   0.4312
     0.8944   0.9170   1.0234   1.2587   1.4448   1.4740   1.5914   1.7039
     1.7128   1.7242   1.7931   1.8006   1.8776   1.9521   2.0469   2.0553
     2.0717   2.1109   2.2535   2.3789

          k = 0.2000 0.0000 0.0000 ( 56753 PWs)   bands (ev):

   -21.9116 -21.6918 -21.3519 -20.8917 -20.3125 -19.6216 -18.8315 -17.9733
   -17.1669 -15.4140 -14.4616 -13.3845 -12.3472 -11.9100 -11.6279 -11.5344
   -11.0846 -10.8998 -10.3491 -10.1661  -9.8475  -9.6295  -9.5978  -9.3401
    -9.2108  -8.9767  -8.6904  -8.6419  -8.4335  -8.0438  -7.9066  -7.6086
    -7.5604  -7.2878  -6.4525  -5.6034  -4.9028  -1.4875  -0.6856   0.3399
     1.0311   1.0500   1.1710   1.3958   1.4081   1.6302   1.7424   1.8324
     1.8456   1.8791   1.9414   1.9567   2.0356   2.1087   2.1838   2.2028
     2.2284   2.2666   2.4008   2.4440

          k = 0.2167 0.0000 0.0000 ( 56731 PWs)   bands (ev):

   -21.7892 -21.5697 -21.2302 -20.7708 -20.1928 -19.5036 -18.7160 -17.8613
   -17.0589 -15.3363 -14.4038 -13.3737 -12.4406 -12.2116 -11.8982 -11.7523
   -11.3130 -11.0956 -10.6065 -10.2933  -9.8931  -9.7028  -9.4777  -9.4540
    -9.1875  -9.0687  -8.9143  -8.5504  -8.5142  -7.9972  -7.9064  -7.7626
    -7.7531  -7.1530  -6.3192  -5.4680  -4.7593  -1.5839  -0.7833   0.2279
     1.1760   1.1924   1.2836   1.3329   1.5709   1.8000   1.9064   1.9812
     1.9879   2.0473   2.1094   2.1264   2.2072   2.2790   2.3366   2.3586
     2.3988   2.4142   2.4353   2.5613

          k = 0.2333 0.0000 0.0000 ( 56715 PWs)   bands (ev):

   -21.6572 -21.4380 -21.0991 -20.6406 -20.0639 -19.3766 -18.5918 -17.7408
   -16.9425 -15.2624 -14.3585 -13.3982 -12.5970 -12.5053 -12.1532 -11.9737
   -11.5553 -11.2623 -10.8574 -10.4469 -10.0924  -9.7211  -9.5472  -9.2995
    -9.2778  -9.2147  -8.9160  -8.5677  -8.4002  -8.0931  -7.9696  -7.9125
    -7.7593  -7.0092  -6.1775  -5.3241  -4.6056  -1.6967  -0.8977   0.0955
     1.1313   1.3285   1.3435   1.5092   1.7472   1.9834   2.0481   2.0836
     2.1572   2.2289   2.2922   2.3100   2.3399   2.3926   2.4628   2.5047
     2.5622   2.5827   2.6168   2.7351

          k = 0.2500 0.0000 0.0000 ( 56633 PWs)   bands (ev):

   -21.5157 -21.2968 -20.9586 -20.5010 -19.9257 -19.2406 -18.4589 -17.6121
   -16.8179 -15.1988 -14.3371 -13.4770 -12.8031 -12.7832 -12.3942 -12.1850
   -11.7873 -11.4469 -11.0413 -10.6932 -10.1714 -10.0174  -9.5227  -9.3808
    -9.3066  -9.1345  -8.7531  -8.6156  -8.2403  -8.1961  -8.1869  -8.0787
    -7.6032  -6.8571  -6.0283  -5.1728  -4.4422  -1.8264  -1.0284  -0.0565
     0.9495   1.4882   1.5025   1.6999   1.9113   1.9370   2.1802   2.2738
     2.3414   2.4238   2.4524   2.4882   2.5073   2.5918   2.6603   2.6653
     2.7579   2.7803   2.8107   2.9300

          k = 0.2667 0.0000 0.0000 ( 56613 PWs)   bands (ev):

   -21.3648 -21.1462 -20.8086 -20.3521 -19.7784 -19.0957 -18.3175 -17.4755
   -16.6852 -15.1554 -14.3567 -13.6214 -13.0366 -13.0355 -12.6108 -12.4083
   -11.9582 -11.7006 -11.1134 -10.9909 -10.3281 -10.1825  -9.8311  -9.3154
    -9.2038  -8.9590  -8.6637  -8.5802  -8.4142  -8.3040  -8.2527  -8.0710
    -7.4385  -6.6975  -5.8728  -5.0156  -4.2701  -1.9727  -1.1743  -0.2263
     0.7444   1.6545   1.6686   1.6852   1.9048   2.1404   2.3905   2.4773
     2.4814   2.6320   2.6357   2.6432   2.7135   2.7184   2.8046   2.8714
     2.9621   2.9661   2.9913   3.0167

          k = 0.2833 0.0000 0.0000 ( 56635 PWs)   bands (ev):

   -21.2044 -20.9863 -20.6494 -20.1940 -19.6222 -18.9421 -18.1680 -17.3316
   -16.5448 -15.1468 -14.4356 -13.8252 -13.2899 -13.2490 -12.7734 -12.6719
   -12.0336 -11.9972 -11.3038 -11.1141 -10.6402 -10.2081 -10.0962  -9.3160
    -9.0165  -8.7735  -8.7150  -8.6470  -8.4367  -8.4166  -8.3977  -7.8928
    -7.2659  -6.5315  -5.7125  -4.8547  -4.0904  -2.1343  -1.3329  -0.4110
     0.5211   1.4277   1.8270   1.8412   2.1237   2.2816   2.3574   2.6141
     2.6940   2.7983   2.8276   2.8534   2.9292   2.9433   3.0312   3.0962
     3.1095   3.1604   3.2158   3.2230

          k = 0.3000 0.0000 0.0000 ( 56591 PWs)   bands (ev):

   -21.0347 -20.8170 -20.4810 -20.0269 -19.4571 -18.7801 -18.0108 -17.1811
   -16.3971 -15.1903 -14.5814 -14.0710 -13.5662 -13.4060 -12.9647 -12.8588
   -12.3069 -12.0385 -11.6149 -11.1082 -10.9214 -10.4760 -10.1034  -9.3135
    -8.8854  -8.8191  -8.7736  -8.6196  -8.5782  -8.5402  -8.2060  -7.7063
    -7.0863  -6.3603  -5.5497  -4.6934  -3.9052  -2.3088  -1.5000  -0.6068
     0.2842   1.1531   1.9854   2.0050   2.0194   2.3564   2.5879   2.7438
     2.8509   2.9241   3.0222   3.0879   3.1213   3.1642   3.1820   3.2714
     3.3345   3.3801   3.4352   3.4478

          k = 0.3167 0.0000 0.0000 ( 56543 PWs)   bands (ev):

   -20.8558 -20.6387 -20.3035 -19.8508 -19.2833 -18.6100 -17.8466 -17.0256
   -16.2434 -15.2966 -14.7833 -14.3433 -13.8611 -13.5003 -13.2608 -12.8862
   -12.6033 -12.0622 -11.8600 -11.3172 -10.9647 -10.7833 -10.0605  -9.3107
    -9.1281  -8.8646  -8.7819  -8.6685  -8.6118  -8.3734  -8.0055  -7.5122
    -6.9009  -6.1860  -5.3874  -4.5371  -3.7180  -2.4918  -1.6689  -0.8086
     0.0387   0.8682   1.6721   2.1879   2.2025   2.4237   2.6028   2.8321
     3.0594   3.1007   3.1678   3.2919   3.3353   3.3505   3.4253   3.4346
     3.5151   3.5253   3.5863   3.6411

          k = 0.3333 0.0000 0.0000 ( 56546 PWs)   bands (ev):

   -20.6678 -20.4512 -20.1170 -19.6660 -19.1012 -18.4323 -17.6764 -16.8683
   -16.0862 -15.4608 -15.0197 -14.6308 -14.1666 -13.6463 -13.4365 -13.0196
   -12.7376 -12.3108 -11.8490 -11.6226 -11.0904 -10.8949 -10.0095  -9.3744
    -9.3095  -9.0397  -8.8706  -8.8016  -8.3951  -8.1597  -7.7969  -7.3114
    -6.7111  -6.0108  -5.2302  -4.3948  -3.5347  -2.6759  -1.8291  -1.0096
    -0.2102   0.5784   1.3522   2.0848   2.3749   2.3897   2.7170   2.8627
     3.0897   3.1541   3.3633   3.4252   3.5434   3.5951   3.6123   3.6885
     3.7010   3.7929   3.8516   3.9036

          k = 0.3500 0.0000 0.0000 ( 56596 PWs)   bands (ev):

   -20.4708 -20.2548 -19.9218 -19.4727 -18.9110 -18.2477 -17.5024 -16.7173
   -15.9351 -15.6609 -15.2631 -14.9242 -14.4756 -13.9401 -13.4049 -13.3130
   -12.6724 -12.6193 -11.9323 -11.7560 -11.3935 -10.8069  -9.9548  -9.6227
    -9.3133  -9.2405  -8.9476  -8.9331  -8.1692  -7.9374  -7.5809  -7.1051
    -6.5188  -5.8383  -5.0845  -4.2818  -3.3668  -2.8485  -1.9630  -1.2009
    -0.4566   0.2882   1.0304   1.7417   2.3600   2.5650   2.5801   2.7855
     3.1360   3.3606   3.6380   3.6964   3.8176   3.8666   3.8863   3.9674
     3.9811   4.0739   4.1300   4.1810

          k = 0.3667 0.0000 0.0000 ( 56584 PWs)   bands (ev):

   -20.2650 -20.0497 -19.7179 -19.2711 -18.7133 -18.0574 -17.3288 -16.5963
   -15.8608 -15.8381 -15.4500 -15.2146 -14.7826 -14.2513 -13.6250 -13.3120
   -12.9290 -12.5627 -12.2358 -11.7152 -11.6186 -10.7099  -9.8988  -9.8723
    -9.4475  -9.3269  -9.0746  -9.0147  -7.9346  -7.7071  -7.3584  -6.8947
    -6.3266  -5.6731  -4.9597  -4.2219  -3.2333  -2.9906  -2.0435  -1.3707
    -0.6933   0.0027   0.7107   1.3991   2.0019   2.4163   2.7575   2.7730
     3.4225   3.6446   3.9242   3.9811   4.1062   4.1475   4.1752   4.2600
     4.2748   4.3681   4.4196   4.4583

          k = 0.3833 0.0000 0.0000 ( 56614 PWs)   bands (ev):

   -20.0505 -19.8359 -19.5057 -19.0616 -18.5089 -17.8638 -17.1653 -16.5756
   -15.9842 -15.9359 -15.4864 -15.4334 -15.0773 -14.5613 -13.9365 -13.2733
   -13.1471 -12.5709 -12.3944 -11.9978 -11.5029 -10.6070 -10.1224  -9.8445
    -9.6563  -9.3678  -9.1899  -9.0927  -7.6917  -7.4696  -7.1305  -6.6822
    -6.1379  -5.5215  -4.8685  -4.2422  -3.1558  -3.0819  -2.0392  -1.5032
    -0.9117  -0.2730   0.3968   1.0598   1.6457   2.0490   2.9512   2.9673
     3.7221   3.9414   4.2206   4.2773   4.4081   4.4296   4.4782   4.5660
     4.5810   4.6625   4.6714   4.7097

          k = 0.4000 0.0000 0.0000 ( 56632 PWs)   bands (ev):

   -19.8274 -19.6138 -19.2854 -18.8447 -18.2990 -17.6712 -17.0386 -16.7188
   -16.1197 -16.0178 -15.6758 -15.4326 -15.2157 -14.8653 -14.2434 -13.5577
   -13.0139 -12.8565 -12.2879 -12.2546 -11.3650 -10.5001 -10.3719  -9.8805
    -9.7787  -9.4664  -9.2559  -9.1739  -7.4412  -7.2257  -6.8985  -6.4699
    -5.9574  -5.3924  -4.8260  -4.3516  -3.1389  -3.1183  -1.9391  -1.5804
    -1.1008  -0.5322   0.0928   0.7267   1.2936   1.6851   3.1448   3.1617
     4.0345   4.2498   4.5149   4.5596   4.6596   4.6877   4.7227   4.7947
     4.8438   4.8853   4.9041   5.0007

          k = 0.4167 0.0000 0.0000 ( 56662 PWs)   bands (ev):

   -19.5961 -19.3836 -19.0575 -18.6214 -18.0860 -17.4901 -17.0113 -16.9549
   -16.2277 -16.1607 -15.6854 -15.6444 -15.1562 -15.0519 -14.5419 -13.8556
   -13.1489 -12.8443 -12.5723 -12.0903 -11.2191 -10.6201 -10.3906 -10.0890
    -9.7335  -9.6062  -9.2890  -9.2562  -7.1837  -6.9763  -6.6644  -6.2614
    -5.7912  -5.2964  -4.8449  -4.5317  -3.1501  -3.1295  -1.7641  -1.5872
    -1.2466  -0.7667  -0.1966   0.4026   0.9475   1.3257   3.3370   3.3542
     4.3593   4.5597   4.5806   4.7083   4.8439   4.9444   5.0078   5.0493
     5.1242   5.1947   5.2176   5.2346

          k = 0.4333 0.0000 0.0000 ( 56656 PWs)   bands (ev):

   -19.3567 -19.1457 -18.8225 -18.3928 -17.8745 -17.3477 -17.2217 -17.1325
   -16.3462 -16.2225 -15.9064 -15.5570 -15.3652 -14.9011 -14.7821 -14.1480
   -13.4364 -12.8563 -12.6540 -11.9148 -11.0672 -10.8660 -10.3023 -10.2802
    -9.7604  -9.6919  -9.3420  -9.3092  -6.9198  -6.7228  -6.4304  -6.0611
    -5.6475  -5.2453  -4.9288  -4.7563  -3.1618  -3.1402  -1.5471  -1.5213
    -1.3301  -0.9648  -0.4650   0.0911   0.6092   0.9720   3.5258   3.5422
     4.5781   4.6060   4.6961   4.9147   5.0853   5.1018   5.2567   5.3502
     5.3870   5.4664   5.4776   5.5627

          k = 0.4500 0.0000 0.0000 ( 56638 PWs)   bands (ev):

   -19.1097 -18.9004 -18.5813 -18.1614 -17.6752 -17.4991 -17.3483 -17.3025
   -16.4415 -16.3107 -15.9115 -15.7587 -15.2329 -15.1336 -14.6154 -14.4320
   -13.7170 -13.1281 -12.4579 -11.7309 -11.1089 -10.9108 -10.5149 -10.1722
    -9.9179  -9.6684  -9.4111  -9.3347  -6.6507  -6.4667  -6.1997  -5.8750
    -5.5363  -5.2488  -5.0706  -5.0067  -3.1720  -3.1499  -1.4030  -1.3966
    -1.2523  -1.1044  -0.7022  -0.2032   0.2813   0.6251   3.7053   3.7245
     4.5078   4.5955   4.9671   5.0697   5.1526   5.2815   5.5540   5.6575
     5.7020   5.7343   5.8203   5.9079

          k = 0.4667 0.0000 0.0000 ( 56644 PWs)   bands (ev):

   -18.8553 -18.6484 -18.3352 -17.9320 -17.7773 -17.6030 -17.5104 -17.4045
   -16.4799 -16.3983 -15.9933 -15.7492 -15.3925 -15.0248 -14.7001 -14.3927
   -13.9887 -13.3945 -12.2506 -11.5401 -11.3479 -10.7551 -10.7218 -10.1174
   -10.0261  -9.6850  -9.4480  -9.3612  -6.3772  -6.2103  -5.9768  -5.7112
    -5.4683  -5.3110  -5.2716  -5.2551  -3.1799  -3.1575  -1.3452  -1.3196
    -1.1039  -1.0209  -0.8670  -0.4719  -0.0332   0.2861   3.8645   3.9012
     4.4107   4.6075   4.8494   5.1808   5.4150   5.6078   5.7213   5.8873
     6.0260   6.0887   6.1219   6.1847

          k = 0.4833 0.0000 0.0000 ( 56640 PWs)   bands (ev):

   -18.5941 -18.3907 -18.0868 -18.0542 -17.8633 -17.7167 -17.5996 -17.4495
   -16.5609 -16.3680 -16.0891 -15.7171 -15.4626 -15.0061 -14.7504 -14.2730
   -14.1382 -13.6538 -12.0349 -11.5827 -11.3431 -10.9360 -10.5874 -10.2606
    -9.9402  -9.7493  -9.4446  -9.3894  -6.1007  -5.9563  -5.7674  -5.5794
    -5.5461  -5.4743  -5.4508  -5.4212  -3.1850  -3.1624  -1.3181  -1.2837
    -1.0319  -0.9485  -0.6822  -0.6766  -0.3260  -0.0430   3.9955   4.0513
     4.3406   4.5189   4.8560   5.0977   5.7430   5.7860   6.0131   6.0156
     6.2612   6.4136   6.4456   6.5611

          k = 0.5000 0.0000 0.0000 ( 56646 PWs)   bands (ev):

   -18.3284 -18.3252 -18.1300 -18.1269 -17.8416 -17.8379 -17.5351 -17.5281
   -16.5025 -16.4888 -15.9302 -15.9274 -15.2477 -15.2442 -14.5193 -14.5154
   -13.9072 -13.9027 -11.8127 -11.8110 -11.1425 -11.1405 -10.4253 -10.4220
    -9.8411  -9.8387  -9.4275  -9.4115  -5.8247  -5.8213  -5.7103  -5.7073
    -5.5806  -5.5780  -5.4941  -5.4846  -3.1867  -3.1640  -1.2941  -1.2926
    -0.9710  -0.9683  -0.6121  -0.6076  -0.3576  -0.3520   4.0760   4.0911
     4.3757   4.3880   4.9659   4.9676   5.8729   5.8739   6.1748   6.1757
     6.3909   6.3920   6.6049   6.6066

     Writing output data file ZGNR9.save

     init_run     :     10.67s CPU     11.59s WALL (       1 calls)
     electrons    :   6802.31s CPU   6847.44s WALL (       1 calls)

     Called by init_run:
     wfcinit      :      0.00s CPU      0.00s WALL (       1 calls)
     potinit      :      2.16s CPU      2.48s WALL (       1 calls)

     Called by electrons:
     c_bands      :   6802.31s CPU   6847.43s WALL (       1 calls)
     v_of_rho     :      1.30s CPU      1.51s WALL (       1 calls)
     newd         :      2.97s CPU      3.39s WALL (       1 calls)
     PAW_pot      :      0.61s CPU      0.62s WALL (       1 calls)

     Called by c_bands:
     init_us_2    :      0.81s CPU      1.06s WALL (      31 calls)
     cegterg      :   6611.45s CPU   6648.98s WALL (     169 calls)

     Called by sum_band:

     Called by *egterg:
     h_psi        :   2781.89s CPU   2787.46s WALL (    3424 calls)
     s_psi        :    739.19s CPU    739.59s WALL (    3424 calls)
     g_psi        :      8.49s CPU      8.51s WALL (    3224 calls)
     cdiaghg      :     51.80s CPU     51.85s WALL (    3255 calls)

     Called by h_psi:
     h_psi:pot    :   2772.75s CPU   2777.70s WALL (    3424 calls)
     h_psi:calbec :    764.86s CPU    765.30s WALL (    3424 calls)
     vloc_psi     :   1268.58s CPU   1272.69s WALL (    3424 calls)
     add_vuspsi   :    739.28s CPU    739.69s WALL (    3424 calls)

     General routines
     calbec       :    764.83s CPU    765.29s WALL (    3424 calls)
     fft          :      0.77s CPU      0.91s WALL (      13 calls)
     ffts         :      0.02s CPU      0.02s WALL (       1 calls)
     fftw         :   1001.06s CPU   1003.97s WALL (  122284 calls)
     interpolate  :      0.10s CPU      0.12s WALL (       1 calls)
     davcio       :      0.09s CPU      5.82s WALL (      31 calls)

     Parallel routines
     fft_scatter  :    154.78s CPU    155.47s WALL (  122298 calls)

     PWSCF        :     1h53m CPU        1h54m WALL


   This run was terminated on:  22:14: 7   5Apr2019            

=------------------------------------------------------------------------------=
   JOB DONE.
=------------------------------------------------------------------------------=
