
     Program PWSCF v.6.3 starts on 30Jan2019 at 15:26:39 

     This program is part of the open-source Quantum ESPRESSO suite
     for quantum simulation of materials; please cite
         "P. Giannozzi et al., J. Phys.:Condens. Matter 21 395502 (2009);
         "P. Giannozzi et al., J. Phys.:Condens. Matter 29 465901 (2017);
          URL http://www.quantum-espresso.org", 
     in publications or presentations arising from this work. More details at
     http://www.quantum-espresso.org/quote

     Parallel version (MPI & OpenMP), running on     544 processor cores
     Number of MPI processes:               136
     Threads/MPI process:                     4

     MPI processes distributed on     2 nodes
     K-points division:     npool     =      34
     R & G space division:  proc/nbgrp/npool/nimage =       4
     Waiting for input...
     Reading input from standard input

     Current dimensions of program PWSCF are:
     Max number of different atomic species (ntypx) = 10
     Max number of k-points (npk) =  40000
     Max angular momentum in pseudopotentials (lmaxx) =  3

     Atomic positions and unit cell read from directory:
     tmp/ZGNR20.save/
 
     WARNING: atomic wfc #  2 for atom type 1 has zero norm
     WARNING: atomic wfc #  4 for atom type 1 has zero norm
               file H.pbe-mt_fhi.UPF: wavefunction(s)  2p 4f renormalized

     Subspace diagonalization in iterative solution of the eigenvalue problem:
     a serial algorithm will be used

 
     Parallelization info
     --------------------
     sticks:   dense  smooth     PW     G-vecs:    dense   smooth      PW
     Min        3766    3766   1063               302708   302708   45923
     Max        3768    3768   1064               302709   302709   45924
     Sum       15069   15069   4253              1210833  1210833  183693
 


     bravais-lattice index     =            0
     lattice parameter (alat)  =       4.6487  a.u.
     unit-cell volume          =    8964.4877 (a.u.)^3
     number of atoms/cell      =           42
     number of atomic types    =            2
     number of electrons       =       162.00
     number of Kohn-Sham states=          120
     kinetic-energy cutoff     =     100.0000  Ry
     charge density cutoff     =     400.0000  Ry
     Exchange-correlation      = PBE ( 1  4  3  4 0 0)

     celldm(1)=   4.648726  celldm(2)=  21.951220  celldm(3)=   4.065041
     celldm(4)=   0.000000  celldm(5)=   0.000000  celldm(6)=   0.000000

     crystal axes: (cart. coord. in units of alat)
               a(1) = (   1.000000   0.000000   0.000000 )  
               a(2) = (   0.000000  21.951220   0.000000 )  
               a(3) = (   0.000000   0.000000   4.065041 )  

     reciprocal axes: (cart. coord. in units 2 pi/alat)
               b(1) = (  1.000000  0.000000  0.000000 )  
               b(2) = (  0.000000  0.045556  0.000000 )  
               b(3) = (  0.000000  0.000000  0.246000 )  


     PseudoPot. # 1 for C  read from file:
     /marconi_scratch/userexternal/opulci00/D_Davide/PSEUDO/C_pbe-20082014.UPF
     MD5 check sum: 87145631e374dcf03ed53b62604ff615
     Pseudo is Norm-conserving, Zval =  4.0
     Generated by new atomic code, or converted to UPF format
     Using radial grid of 1073 points,  1 beta functions with: 
                l(1) =   0

     PseudoPot. # 2 for H  read from file:
     /marconi_scratch/userexternal/opulci00/D_Davide/PSEUDO/H.pbe-mt_fhi.UPF
     MD5 check sum: a19bd5488733b3d98581df861506e80d
     Pseudo is Norm-conserving, Zval =  1.0
     Generated using FHI98PP, converted with fhi2upf.x v.5.0.2
     Using radial grid of  387 points,  3 beta functions with: 
                l(1) =   0
                l(2) =   1
                l(3) =   3

     atomic species   valence    mass     pseudopotential
        C              4.00    12.01100     C ( 1.00)
        H              1.00     1.00000     H ( 1.00)

      2 Sym. Ops. (no inversion) found


                                    s                        frac. trans.

      isym =  1     identity                                     

 cryst.   s( 1) = (     1          0          0      )
                  (     0          1          0      )
                  (     0          0          1      )

 cart.    s( 1) = (  1.0000000  0.0000000  0.0000000 )
                  (  0.0000000  1.0000000  0.0000000 )
                  (  0.0000000  0.0000000  1.0000000 )


      isym =  2     inv. 180 deg rotation - cart. axis [0,0,1]   

 cryst.   s( 2) = (     1          0          0      )
                  (     0          1          0      )
                  (     0          0         -1      )

 cart.    s( 2) = (  1.0000000  0.0000000  0.0000000 )
                  (  0.0000000  1.0000000  0.0000000 )
                  (  0.0000000  0.0000000 -1.0000000 )


   Cartesian axes

     site n.     atom                  positions (alat units)
         1           C   tau(   1) = (  -0.0000274   0.0397977   0.0000000  )
         2           C   tau(   2) = (   0.4999665   0.3168010   0.0000000  )
         3           C   tau(   3) = (  -0.0000224  -0.5471591   0.0000000  )
         4           C   tau(   4) = (   0.4999738  -0.8350978   0.0000000  )
         5           C   tau(   5) = (  -0.0000531  -1.7061880   0.0000000  )
         6           C   tau(   6) = (   0.4999531  -1.4168261   0.0000000  )
         7           C   tau(   7) = (  -0.0000704  -2.2865987   0.0000000  )
         8           C   tau(   8) = (   0.4999293  -2.5762296   0.0000000  )
         9           C   tau(   9) = (  -0.0000690  -3.4458008   0.0000000  )
        10           C   tau(  10) = (   0.4999311  -3.1560747   0.0000000  )
        11           C   tau(  11) = (  -0.0000611  -4.0251983   0.0000000  )
        12           C   tau(  12) = (   0.4999430  -4.3148909   0.0000000  )
        13           C   tau(  13) = (  -0.0000520  -5.1841163   0.0000000  )
        14           C   tau(  14) = (   0.4999489  -4.8943062   0.0000000  )
        15           C   tau(  15) = (  -0.0000511  -5.7633901   0.0000000  )
        16           C   tau(  16) = (   0.4999517  -6.0532216   0.0000000  )
        17           C   tau(  17) = (  -0.0000479  -6.9223250   0.0000000  )
        18           C   tau(  18) = (   0.4999547  -6.6325629   0.0000000  )
        19           C   tau(  19) = (  -0.0000471  -7.5016720   0.0000000  )
        20           C   tau(  20) = (   0.4999557  -7.7915766   0.0000000  )
        21           C   tau(  21) = (  -0.0000473  -8.6609024   0.0000000  )
        22           C   tau(  22) = (   0.4999558  -8.3709964   0.0000000  )
        23           C   tau(  23) = (  -0.0000481  -9.2402555   0.0000000  )
        24           C   tau(  24) = (   0.4999548  -9.5300163   0.0000000  )
        25           C   tau(  25) = (  -0.0000513 -10.3992073   0.0000000  )
        26           C   tau(  26) = (   0.4999517 -10.1093712   0.0000000  )
        27           C   tau(  27) = (  -0.0000517 -10.9784823   0.0000000  )
        28           C   tau(  28) = (   0.4999494 -11.2683059   0.0000000  )
        29           C   tau(  29) = (  -0.0000606 -12.1374131   0.0000000  )
        30           C   tau(  30) = (   0.4999434 -11.8477133   0.0000000  )
        31           C   tau(  31) = (  -0.0000686 -12.7168081   0.0000000  )
        32           C   tau(  32) = (   0.4999313 -13.0065424   0.0000000  )
        33           C   tau(  33) = (  -0.0000701 -13.8760177   0.0000000  )
        34           C   tau(  34) = (   0.4999294 -13.5863805   0.0000000  )
        35           C   tau(  35) = (  -0.0000530 -14.4564325   0.0000000  )
        36           C   tau(  36) = (   0.4999532 -14.7457808   0.0000000  )
        37           C   tau(  37) = (  -0.0000222 -15.6154543   0.0000000  )
        38           C   tau(  38) = (   0.4999739 -15.3275144   0.0000000  )
        39           C   tau(  39) = (  -0.0000270 -16.2024005   0.0000000  )
        40           C   tau(  40) = (   0.4999669 -16.4793977   0.0000000  )
        41           H   tau(  41) = (   0.4999006   0.7592913   0.0000000  )
        42           H   tau(  42) = (   0.4999010 -16.9218970   0.0000000  )

   Crystallographic axes

     site n.     atom                  positions (cryst. coord.)
         1           C   tau(   1) = ( -0.0000274  0.0018130  0.0000000  )
         2           C   tau(   2) = (  0.4999665  0.0144320  0.0000000  )
         3           C   tau(   3) = ( -0.0000224 -0.0249261  0.0000000  )
         4           C   tau(   4) = (  0.4999738 -0.0380433  0.0000000  )
         5           C   tau(   5) = ( -0.0000531 -0.0777263  0.0000000  )
         6           C   tau(   6) = (  0.4999531 -0.0645443  0.0000000  )
         7           C   tau(   7) = ( -0.0000704 -0.1041673  0.0000000  )
         8           C   tau(   8) = (  0.4999293 -0.1173616  0.0000000  )
         9           C   tau(   9) = ( -0.0000690 -0.1569754  0.0000000  )
        10           C   tau(  10) = (  0.4999311 -0.1437767  0.0000000  )
        11           C   tau(  11) = ( -0.0000611 -0.1833701  0.0000000  )
        12           C   tau(  12) = (  0.4999430 -0.1965673  0.0000000  )
        13           C   tau(  13) = ( -0.0000520 -0.2361653  0.0000000  )
        14           C   tau(  14) = (  0.4999489 -0.2229628  0.0000000  )
        15           C   tau(  15) = ( -0.0000511 -0.2625544  0.0000000  )
        16           C   tau(  16) = (  0.4999517 -0.2757579  0.0000000  )
        17           C   tau(  17) = ( -0.0000479 -0.3153504  0.0000000  )
        18           C   tau(  18) = (  0.4999547 -0.3021501  0.0000000  )
        19           C   tau(  19) = ( -0.0000471 -0.3417428  0.0000000  )
        20           C   tau(  20) = (  0.4999557 -0.3549496  0.0000000  )
        21           C   tau(  21) = ( -0.0000473 -0.3945522  0.0000000  )
        22           C   tau(  22) = (  0.4999558 -0.3813454  0.0000000  )
        23           C   tau(  23) = ( -0.0000481 -0.4209450  0.0000000  )
        24           C   tau(  24) = (  0.4999548 -0.4341452  0.0000000  )
        25           C   tau(  25) = ( -0.0000513 -0.4737417  0.0000000  )
        26           C   tau(  26) = (  0.4999517 -0.4605380  0.0000000  )
        27           C   tau(  27) = ( -0.0000517 -0.5001309  0.0000000  )
        28           C   tau(  28) = (  0.4999494 -0.5133339  0.0000000  )
        29           C   tau(  29) = ( -0.0000606 -0.5529266  0.0000000  )
        30           C   tau(  30) = (  0.4999434 -0.5397292  0.0000000  )
        31           C   tau(  31) = ( -0.0000686 -0.5793213  0.0000000  )
        32           C   tau(  32) = (  0.4999313 -0.5925203  0.0000000  )
        33           C   tau(  33) = ( -0.0000701 -0.6321297  0.0000000  )
        34           C   tau(  34) = (  0.4999294 -0.6189351  0.0000000  )
        35           C   tau(  35) = ( -0.0000530 -0.6585708  0.0000000  )
        36           C   tau(  36) = (  0.4999532 -0.6717522  0.0000000  )
        37           C   tau(  37) = ( -0.0000222 -0.7113707  0.0000000  )
        38           C   tau(  38) = (  0.4999739 -0.6982534  0.0000000  )
        39           C   tau(  39) = ( -0.0000270 -0.7381094  0.0000000  )
        40           C   tau(  40) = (  0.4999669 -0.7507281  0.0000000  )
        41           H   tau(  41) = (  0.4999006  0.0345899  0.0000000  )
        42           H   tau(  42) = (  0.4999010 -0.7708864  0.0000000  )

     number of k points=    61  Fermi-Dirac smearing, width (Ry)=  0.0037
                       cart. coord. in units 2pi/alat
        k(    1) = (   0.0000000   0.0000000   0.0000000), wk =   0.0166667
        k(    2) = (   0.0083333   0.0000000   0.0000000), wk =   0.0333333
        k(    3) = (   0.0166667   0.0000000   0.0000000), wk =   0.0333333
        k(    4) = (   0.0250000   0.0000000   0.0000000), wk =   0.0333333
        k(    5) = (   0.0333333   0.0000000   0.0000000), wk =   0.0333333
        k(    6) = (   0.0416667   0.0000000   0.0000000), wk =   0.0333333
        k(    7) = (   0.0500000   0.0000000   0.0000000), wk =   0.0333333
        k(    8) = (   0.0583333   0.0000000   0.0000000), wk =   0.0333333
        k(    9) = (   0.0666667   0.0000000   0.0000000), wk =   0.0333333
        k(   10) = (   0.0750000   0.0000000   0.0000000), wk =   0.0333333
        k(   11) = (   0.0833333   0.0000000   0.0000000), wk =   0.0333333
        k(   12) = (   0.0916667   0.0000000   0.0000000), wk =   0.0333333
        k(   13) = (   0.1000000   0.0000000   0.0000000), wk =   0.0333333
        k(   14) = (   0.1083333   0.0000000   0.0000000), wk =   0.0333333
        k(   15) = (   0.1166667   0.0000000   0.0000000), wk =   0.0333333
        k(   16) = (   0.1250000   0.0000000   0.0000000), wk =   0.0333333
        k(   17) = (   0.1333333   0.0000000   0.0000000), wk =   0.0333333
        k(   18) = (   0.1416667   0.0000000   0.0000000), wk =   0.0333333
        k(   19) = (   0.1500000   0.0000000   0.0000000), wk =   0.0333333
        k(   20) = (   0.1583333   0.0000000   0.0000000), wk =   0.0333333
        k(   21) = (   0.1666667   0.0000000   0.0000000), wk =   0.0333333
        k(   22) = (   0.1750000   0.0000000   0.0000000), wk =   0.0333333
        k(   23) = (   0.1833333   0.0000000   0.0000000), wk =   0.0333333
        k(   24) = (   0.1916667   0.0000000   0.0000000), wk =   0.0333333
        k(   25) = (   0.2000000   0.0000000   0.0000000), wk =   0.0333333
        k(   26) = (   0.2083333   0.0000000   0.0000000), wk =   0.0333333
        k(   27) = (   0.2166667   0.0000000   0.0000000), wk =   0.0333333
        k(   28) = (   0.2250000   0.0000000   0.0000000), wk =   0.0333333
        k(   29) = (   0.2333333   0.0000000   0.0000000), wk =   0.0333333
        k(   30) = (   0.2416667   0.0000000   0.0000000), wk =   0.0333333
        k(   31) = (   0.2500000   0.0000000   0.0000000), wk =   0.0333333
        k(   32) = (   0.2583333   0.0000000   0.0000000), wk =   0.0333333
        k(   33) = (   0.2666667   0.0000000   0.0000000), wk =   0.0333333
        k(   34) = (   0.2750000   0.0000000   0.0000000), wk =   0.0333333
        k(   35) = (   0.2833333   0.0000000   0.0000000), wk =   0.0333333
        k(   36) = (   0.2916667   0.0000000   0.0000000), wk =   0.0333333
        k(   37) = (   0.3000000   0.0000000   0.0000000), wk =   0.0333333
        k(   38) = (   0.3083333   0.0000000   0.0000000), wk =   0.0333333
        k(   39) = (   0.3166667   0.0000000   0.0000000), wk =   0.0333333
        k(   40) = (   0.3250000   0.0000000   0.0000000), wk =   0.0333333
        k(   41) = (   0.3333333   0.0000000   0.0000000), wk =   0.0333333
        k(   42) = (   0.3416667   0.0000000   0.0000000), wk =   0.0333333
        k(   43) = (   0.3500000   0.0000000   0.0000000), wk =   0.0333333
        k(   44) = (   0.3583333   0.0000000   0.0000000), wk =   0.0333333
        k(   45) = (   0.3666667   0.0000000   0.0000000), wk =   0.0333333
        k(   46) = (   0.3750000   0.0000000   0.0000000), wk =   0.0333333
        k(   47) = (   0.3833333   0.0000000   0.0000000), wk =   0.0333333
        k(   48) = (   0.3916667   0.0000000   0.0000000), wk =   0.0333333
        k(   49) = (   0.4000000   0.0000000   0.0000000), wk =   0.0333333
        k(   50) = (   0.4083333   0.0000000   0.0000000), wk =   0.0333333
        k(   51) = (   0.4166667   0.0000000   0.0000000), wk =   0.0333333
        k(   52) = (   0.4250000   0.0000000   0.0000000), wk =   0.0333333
        k(   53) = (   0.4333333   0.0000000   0.0000000), wk =   0.0333333
        k(   54) = (   0.4416667   0.0000000   0.0000000), wk =   0.0333333
        k(   55) = (   0.4500000   0.0000000   0.0000000), wk =   0.0333333
        k(   56) = (   0.4583333   0.0000000   0.0000000), wk =   0.0333333
        k(   57) = (   0.4666667   0.0000000   0.0000000), wk =   0.0333333
        k(   58) = (   0.4750000   0.0000000   0.0000000), wk =   0.0333333
        k(   59) = (   0.4833333   0.0000000   0.0000000), wk =   0.0333333
        k(   60) = (   0.4916667   0.0000000   0.0000000), wk =   0.0333333
        k(   61) = (  0.5000000   0.0000000   0.0000000), wk =   0.0166667

                       cryst. coord.
        k(    1) = (   0.0000000   0.0000000   0.0000000), wk =   0.0166667
        k(    2) = (   0.0083333   0.0000000   0.0000000), wk =   0.0333333
        k(    3) = (   0.0166667   0.0000000   0.0000000), wk =   0.0333333
        k(    4) = (   0.0250000   0.0000000   0.0000000), wk =   0.0333333
        k(    5) = (   0.0333333   0.0000000   0.0000000), wk =   0.0333333
        k(    6) = (   0.0416667   0.0000000   0.0000000), wk =   0.0333333
        k(    7) = (   0.0500000   0.0000000   0.0000000), wk =   0.0333333
        k(    8) = (   0.0583333   0.0000000   0.0000000), wk =   0.0333333
        k(    9) = (   0.0666667   0.0000000   0.0000000), wk =   0.0333333
        k(   10) = (   0.0750000   0.0000000   0.0000000), wk =   0.0333333
        k(   11) = (   0.0833333   0.0000000   0.0000000), wk =   0.0333333
        k(   12) = (   0.0916667   0.0000000   0.0000000), wk =   0.0333333
        k(   13) = (   0.1000000   0.0000000   0.0000000), wk =   0.0333333
        k(   14) = (   0.1083333   0.0000000   0.0000000), wk =   0.0333333
        k(   15) = (   0.1166667   0.0000000   0.0000000), wk =   0.0333333
        k(   16) = (   0.1250000   0.0000000   0.0000000), wk =   0.0333333
        k(   17) = (   0.1333333   0.0000000   0.0000000), wk =   0.0333333
        k(   18) = (   0.1416667   0.0000000   0.0000000), wk =   0.0333333
        k(   19) = (   0.1500000   0.0000000   0.0000000), wk =   0.0333333
        k(   20) = (   0.1583333   0.0000000   0.0000000), wk =   0.0333333
        k(   21) = (   0.1666667   0.0000000   0.0000000), wk =   0.0333333
        k(   22) = (   0.1750000   0.0000000   0.0000000), wk =   0.0333333
        k(   23) = (   0.1833333   0.0000000   0.0000000), wk =   0.0333333
        k(   24) = (   0.1916667   0.0000000   0.0000000), wk =   0.0333333
        k(   25) = (   0.2000000   0.0000000   0.0000000), wk =   0.0333333
        k(   26) = (   0.2083333   0.0000000   0.0000000), wk =   0.0333333
        k(   27) = (   0.2166667   0.0000000   0.0000000), wk =   0.0333333
        k(   28) = (   0.2250000   0.0000000   0.0000000), wk =   0.0333333
        k(   29) = (   0.2333333   0.0000000   0.0000000), wk =   0.0333333
        k(   30) = (   0.2416667   0.0000000   0.0000000), wk =   0.0333333
        k(   31) = (   0.2500000   0.0000000   0.0000000), wk =   0.0333333
        k(   32) = (   0.2583333   0.0000000   0.0000000), wk =   0.0333333
        k(   33) = (   0.2666667   0.0000000   0.0000000), wk =   0.0333333
        k(   34) = (   0.2750000   0.0000000   0.0000000), wk =   0.0333333
        k(   35) = (   0.2833333   0.0000000   0.0000000), wk =   0.0333333
        k(   36) = (   0.2916667   0.0000000   0.0000000), wk =   0.0333333
        k(   37) = (   0.3000000   0.0000000   0.0000000), wk =   0.0333333
        k(   38) = (   0.3083333   0.0000000   0.0000000), wk =   0.0333333
        k(   39) = (   0.3166667   0.0000000   0.0000000), wk =   0.0333333
        k(   40) = (   0.3250000   0.0000000   0.0000000), wk =   0.0333333
        k(   41) = (   0.3333333   0.0000000   0.0000000), wk =   0.0333333
        k(   42) = (   0.3416667   0.0000000   0.0000000), wk =   0.0333333
        k(   43) = (   0.3500000   0.0000000   0.0000000), wk =   0.0333333
        k(   44) = (   0.3583333   0.0000000   0.0000000), wk =   0.0333333
        k(   45) = (   0.3666667   0.0000000   0.0000000), wk =   0.0333333
        k(   46) = (   0.3750000   0.0000000   0.0000000), wk =   0.0333333
        k(   47) = (   0.3833333   0.0000000   0.0000000), wk =   0.0333333
        k(   48) = (   0.3916667   0.0000000   0.0000000), wk =   0.0333333
        k(   49) = (   0.4000000   0.0000000   0.0000000), wk =   0.0333333
        k(   50) = (   0.4083333   0.0000000   0.0000000), wk =   0.0333333
        k(   51) = (   0.4166667   0.0000000   0.0000000), wk =   0.0333333
        k(   52) = (   0.4250000   0.0000000   0.0000000), wk =   0.0333333
        k(   53) = (   0.4333333   0.0000000   0.0000000), wk =   0.0333333
        k(   54) = (   0.4416667   0.0000000   0.0000000), wk =   0.0333333
        k(   55) = (   0.4500000   0.0000000   0.0000000), wk =   0.0333333
        k(   56) = (   0.4583333   0.0000000   0.0000000), wk =   0.0333333
        k(   57) = (   0.4666667   0.0000000   0.0000000), wk =   0.0333333
        k(   58) = (   0.4750000   0.0000000   0.0000000), wk =   0.0333333
        k(   59) = (   0.4833333   0.0000000   0.0000000), wk =   0.0333333
        k(   60) = (   0.4916667   0.0000000   0.0000000), wk =   0.0333333
        k(   61) = (  0.5000000   0.0000000   0.0000000), wk =   0.0166667

     Dense  grid:  1210833 G-vectors     FFT dimensions: (  30, 675, 125)

     Dynamical RAM for                 wfc:      69.30 MB

     Dynamical RAM for     wfc (w. buffer):      69.30 MB

     Dynamical RAM for           str. fact:       9.24 MB

     Dynamical RAM for           local pot:       0.00 MB

     Dynamical RAM for          nlocal pot:      35.80 MB

     Dynamical RAM for                qrad:       0.95 MB

     Dynamical RAM for          rho,v,vnew:      28.69 MB

     Dynamical RAM for           G-vectors:      19.63 MB

     Dynamical RAM for          h,s,v(r/c):      10.55 MB

     Dynamical RAM for          <psi|beta>:       0.11 MB

     Dynamical RAM for                 psi:     277.19 MB

     Dynamical RAM for                hpsi:     277.19 MB

     Dynamical RAM for      wfcinit/wfcrot:     222.59 MB

     Estimated static dynamical RAM per process >     202.18 MB

     Estimated max dynamical RAM per process >     767.21 MB

     Estimated total dynamical RAM >     101.90 GB

     The potential is recalculated from file :
     tmp/ZGNR20.save/charge-density.dat

     Starting wfcs are  192 randomized atomic wfcs

     Band Structure Calculation
     Davidson diagonalization with overlap

     Computing kpt #:     1
     c_bands:  1 eigenvalues not converged
     total cpu time spent up to now is      354.0 secs

     Computing kpt #:     2
     c_bands:  1 eigenvalues not converged
     total cpu time spent up to now is      686.1 secs

     ethr =  6.17E-10,  avg # of iterations = 57.3

     total cpu time spent up to now is      686.3 secs

     End of band structure calculation

          k = 0.0000 0.0000 0.0000 (151659 PWs)   bands (ev):

   -20.6439 -20.5923 -20.5116 -20.4063 -20.2748 -20.1182 -19.9346 -19.7253
   -19.4901 -19.2293 -18.9420 -18.6301 -18.2941 -17.9338 -17.5513 -17.1486
   -16.7303 -16.3053 -15.8954 -15.5675 -14.2106 -13.8154 -13.3236 -12.7881
   -12.2238 -11.6394 -11.0392 -10.4283  -9.8099  -9.1880  -8.7489  -8.6897
    -8.5971  -8.5672  -8.4751  -8.3224  -8.1403  -7.9546  -7.9275  -7.6858
    -7.5417  -7.4939  -7.4188  -7.4154  -7.3555  -7.3218  -7.2012  -7.1174
    -7.0590  -6.8929  -6.7924  -6.7773  -6.7076  -6.5025  -6.4435  -6.2808
    -6.2315  -6.0732  -6.0448  -5.7995  -5.7261  -5.6843  -5.5492  -5.2976
    -5.2835  -5.2751  -5.0544  -4.8909  -4.8789  -4.8250  -4.6200  -4.5869
    -4.4844  -4.4478  -4.3765  -4.3180  -4.2652  -4.2369  -4.1205  -3.8170
    -3.6128   0.6364   0.9050   1.2955   1.7676   2.0018   2.0563   2.0806
     2.1980   2.2046   2.2878   2.3830   2.4732   2.6986   2.8195   2.8629
     3.1474   3.2615   3.3537   3.5687   3.5838   3.5846   3.6745   3.7013
     3.7285   3.8598   3.9112   3.9329   4.0839   4.2180   4.2348   4.4514
     4.4551   4.4568   4.6174   4.7200   4.8142   4.8434   4.9052   4.9567

     occupation numbers 
     1.0000   1.0000   1.0000   1.0000   1.0000   1.0000   1.0000   1.0000
     1.0000   1.0000   1.0000   1.0000   1.0000   1.0000   1.0000   1.0000
     1.0000   1.0000   1.0000   1.0000   1.0000   1.0000   1.0000   1.0000
     1.0000   1.0000   1.0000   1.0000   1.0000   1.0000   1.0000   1.0000
     1.0000   1.0000   1.0000   1.0000   1.0000   1.0000   1.0000   1.0000
     1.0000   1.0000   1.0000   1.0000   1.0000   1.0000   1.0000   1.0000
     1.0000   1.0000   1.0000   1.0000   1.0000   1.0000   1.0000   1.0000
     1.0000   1.0000   1.0000   1.0000   1.0000   1.0000   1.0000   1.0000
     1.0000   1.0000   1.0000   1.0000   1.0000   1.0000   1.0000   1.0000
     1.0000   1.0000   1.0000   1.0000   1.0000   1.0000   1.0000   1.0000
     1.0000   0.0000   0.0000   0.0000   0.0000   0.0000   0.0000   0.0000
     0.0000   0.0000   0.0000   0.0000   0.0000   0.0000   0.0000   0.0000
     0.0000   0.0000   0.0000   0.0000   0.0000   0.0000   0.0000   0.0000
     0.0000   0.0000   0.0000   0.0000   0.0000   0.0000   0.0000   0.0000
     0.0000   0.0000   0.0000   0.0000   0.0000   0.0000   0.0000   0.0000

          k = 0.0083 0.0000 0.0000 (151659 PWs)   bands (ev):

   -20.6426 -20.5911 -20.5104 -20.4051 -20.2736 -20.1170 -19.9333 -19.7241
   -19.4889 -19.2281 -18.9408 -18.6289 -18.2929 -17.9326 -17.5502 -17.1475
   -16.7291 -16.3042 -15.8943 -15.5665 -14.2096 -13.8144 -13.3227 -12.7871
   -12.2229 -11.6387 -11.0385 -10.4278  -9.8095  -9.1878  -8.7474  -8.6883
    -8.5956  -8.5671  -8.4736  -8.3209  -8.1389  -7.9549  -7.9261  -7.6844
    -7.5472  -7.4995  -7.4244  -7.4139  -7.3561  -7.3273  -7.2066  -7.1160
    -7.0644  -6.8983  -6.7909  -6.7785  -6.7127  -6.5078  -6.4421  -6.2860
    -6.2330  -6.0718  -6.0497  -5.8051  -5.7273  -5.6829  -5.5542  -5.3022
    -5.2821  -5.2776  -5.0585  -4.8953  -4.8775  -4.8274  -4.6276  -4.5864
    -4.4830  -4.4533  -4.3781  -4.3231  -4.2673  -4.2417  -4.1191  -3.8156
    -3.6113   0.6361   0.9047   1.2952   1.7673   2.0035   2.0580   2.0822
     2.1996   2.2062   2.2875   2.3846   2.4748   2.7002   2.8194   2.8646
     3.1491   3.2619   3.3554   3.5697   3.5853   3.5862   3.6759   3.7029
     3.7298   3.8605   3.9127   3.9346   4.0855   4.2197   4.2358   4.4518
     4.4568   4.4585   4.6191   4.7206   4.8157   4.8450   4.9068   4.9575

     occupation numbers 
     1.0000   1.0000   1.0000   1.0000   1.0000   1.0000   1.0000   1.0000
     1.0000   1.0000   1.0000   1.0000   1.0000   1.0000   1.0000   1.0000
     1.0000   1.0000   1.0000   1.0000   1.0000   1.0000   1.0000   1.0000
     1.0000   1.0000   1.0000   1.0000   1.0000   1.0000   1.0000   1.0000
     1.0000   1.0000   1.0000   1.0000   1.0000   1.0000   1.0000   1.0000
     1.0000   1.0000   1.0000   1.0000   1.0000   1.0000   1.0000   1.0000
     1.0000   1.0000   1.0000   1.0000   1.0000   1.0000   1.0000   1.0000
     1.0000   1.0000   1.0000   1.0000   1.0000   1.0000   1.0000   1.0000
     1.0000   1.0000   1.0000   1.0000   1.0000   1.0000   1.0000   1.0000
     1.0000   1.0000   1.0000   1.0000   1.0000   1.0000   1.0000   1.0000
     1.0000   0.0000   0.0000   0.0000   0.0000   0.0000   0.0000   0.0000
     0.0000   0.0000   0.0000   0.0000   0.0000   0.0000   0.0000   0.0000
     0.0000   0.0000   0.0000   0.0000   0.0000   0.0000   0.0000   0.0000
     0.0000   0.0000   0.0000   0.0000   0.0000   0.0000   0.0000   0.0000
     0.0000   0.0000   0.0000   0.0000   0.0000   0.0000   0.0000   0.0000

          k = 0.0167 0.0000 0.0000 (151671 PWs)   bands (ev):

   -20.6389 -20.5874 -20.5067 -20.4014 -20.2698 -20.1133 -19.9296 -19.7204
   -19.4852 -19.2244 -18.9372 -18.6253 -18.2894 -17.9290 -17.5466 -17.1440
   -16.7257 -16.3008 -15.8910 -15.5633 -14.2065 -13.8114 -13.3198 -12.7844
   -12.2204 -11.6363 -11.0365 -10.4261  -9.8082  -9.1870  -8.7429  -8.6838
    -8.5912  -8.5670  -8.4692  -8.3165  -8.1345  -7.9556  -7.9217  -7.6800
    -7.5638  -7.5160  -7.4409  -7.4096  -7.3578  -7.3438  -7.2229  -7.1117
    -7.0807  -6.9144  -6.7867  -6.7822  -6.7278  -6.5238  -6.4378  -6.3015
    -6.2375  -6.0676  -6.0642  -5.8216  -5.7313  -5.6787  -5.5690  -5.3159
    -5.2850  -5.2779  -5.0706  -4.9085  -4.8732  -4.8347  -4.6473  -4.5878
    -4.4787  -4.4693  -4.3835  -4.3379  -4.2740  -4.2561  -4.1148  -3.8112
    -3.6069   0.6351   0.9037   1.2942   1.7663   2.0086   2.0630   2.0870
     2.2045   2.2111   2.2865   2.3894   2.4798   2.7051   2.8188   2.8696
     3.1541   3.2633   3.3605   3.5728   3.5898   3.5912   3.6803   3.7079
     3.7337   3.8627   3.9171   3.9397   4.0901   4.2246   4.2387   4.4529
     4.4618   4.4635   4.6241   4.7222   4.8202   4.8500   4.9118   4.9599

     occupation numbers 
     1.0000   1.0000   1.0000   1.0000   1.0000   1.0000   1.0000   1.0000
     1.0000   1.0000   1.0000   1.0000   1.0000   1.0000   1.0000   1.0000
     1.0000   1.0000   1.0000   1.0000   1.0000   1.0000   1.0000   1.0000
     1.0000   1.0000   1.0000   1.0000   1.0000   1.0000   1.0000   1.0000
     1.0000   1.0000   1.0000   1.0000   1.0000   1.0000   1.0000   1.0000
     1.0000   1.0000   1.0000   1.0000   1.0000   1.0000   1.0000   1.0000
     1.0000   1.0000   1.0000   1.0000   1.0000   1.0000   1.0000   1.0000
     1.0000   1.0000   1.0000   1.0000   1.0000   1.0000   1.0000   1.0000
     1.0000   1.0000   1.0000   1.0000   1.0000   1.0000   1.0000   1.0000
     1.0000   1.0000   1.0000   1.0000   1.0000   1.0000   1.0000   1.0000
     1.0000   0.0000   0.0000   0.0000   0.0000   0.0000   0.0000   0.0000
     0.0000   0.0000   0.0000   0.0000   0.0000   0.0000   0.0000   0.0000
     0.0000   0.0000   0.0000   0.0000   0.0000   0.0000   0.0000   0.0000
     0.0000   0.0000   0.0000   0.0000   0.0000   0.0000   0.0000   0.0000
     0.0000   0.0000   0.0000   0.0000   0.0000   0.0000   0.0000   0.0000

          k = 0.0250 0.0000 0.0000 (151701 PWs)   bands (ev):

   -20.6327 -20.5812 -20.5005 -20.3952 -20.2637 -20.1071 -19.9235 -19.7143
   -19.4791 -19.2184 -18.9311 -18.6193 -18.2834 -17.9231 -17.5408 -17.1382
   -16.7200 -16.2952 -15.8855 -15.5579 -14.2013 -13.8063 -13.3149 -12.7798
   -12.2161 -11.6325 -11.0331 -10.4232  -9.8061  -9.1858  -8.7355  -8.6764
    -8.5838  -8.5669  -8.4618  -8.3092  -8.1272  -7.9568  -7.9144  -7.6727
    -7.5913  -7.5435  -7.4683  -7.4024  -7.3711  -7.3610  -7.2499  -7.1078
    -7.1045  -6.9411  -6.7898  -6.7795  -6.7516  -6.5501  -6.4307  -6.3270
    -6.2455  -6.0881  -6.0605  -5.8481  -5.7388  -5.6716  -5.5934  -5.3385
    -5.2978  -5.2709  -5.0904  -4.9306  -4.8662  -4.8467  -4.6759  -4.5943
    -4.4947  -4.4716  -4.3938  -4.3619  -4.2855  -4.2797  -4.1075  -3.8038
    -3.5994   0.6335   0.9021   1.2926   1.7646   2.0170   2.0714   2.0951
     2.2126   2.2192   2.2849   2.3973   2.4881   2.7132   2.8178   2.8780
     3.1623   3.2655   3.3690   3.5780   3.5973   3.5994   3.6877   3.7163
     3.7402   3.8665   3.9245   3.9482   4.0979   4.2329   4.2436   4.4549
     4.4702   4.4719   4.6325   4.7246   4.8278   4.8583   4.9201   4.9641

     occupation numbers 
     1.0000   1.0000   1.0000   1.0000   1.0000   1.0000   1.0000   1.0000
     1.0000   1.0000   1.0000   1.0000   1.0000   1.0000   1.0000   1.0000
     1.0000   1.0000   1.0000   1.0000   1.0000   1.0000   1.0000   1.0000
     1.0000   1.0000   1.0000   1.0000   1.0000   1.0000   1.0000   1.0000
     1.0000   1.0000   1.0000   1.0000   1.0000   1.0000   1.0000   1.0000
     1.0000   1.0000   1.0000   1.0000   1.0000   1.0000   1.0000   1.0000
     1.0000   1.0000   1.0000   1.0000   1.0000   1.0000   1.0000   1.0000
     1.0000   1.0000   1.0000   1.0000   1.0000   1.0000   1.0000   1.0000
     1.0000   1.0000   1.0000   1.0000   1.0000   1.0000   1.0000   1.0000
     1.0000   1.0000   1.0000   1.0000   1.0000   1.0000   1.0000   1.0000
     1.0000   0.0000   0.0000   0.0000   0.0000   0.0000   0.0000   0.0000
     0.0000   0.0000   0.0000   0.0000   0.0000   0.0000   0.0000   0.0000
     0.0000   0.0000   0.0000   0.0000   0.0000   0.0000   0.0000   0.0000
     0.0000   0.0000   0.0000   0.0000   0.0000   0.0000   0.0000   0.0000
     0.0000   0.0000   0.0000   0.0000   0.0000   0.0000   0.0000   0.0000

          k = 0.0333 0.0000 0.0000 (151683 PWs)   bands (ev):

   -20.6240 -20.5725 -20.4918 -20.3865 -20.2550 -20.0985 -19.9149 -19.7057
   -19.4705 -19.2099 -18.9226 -18.6109 -18.2750 -17.9149 -17.5326 -17.1301
   -16.7120 -16.2874 -15.8779 -15.5504 -14.1940 -13.7992 -13.3081 -12.7734
   -12.2101 -11.6270 -11.0283 -10.4193  -9.8032  -9.1841  -8.7252  -8.6661
    -8.5735  -8.5668  -8.4515  -8.2989  -8.1169  -7.9587  -7.9042  -7.6626
    -7.6295  -7.5816  -7.5064  -7.4090  -7.3923  -7.3658  -7.2872  -7.1454
    -7.0944  -6.9782  -6.8080  -6.7773  -6.7695  -6.5867  -6.4208  -6.3624
    -6.2577  -6.1205  -6.0506  -5.8841  -5.7507  -5.6618  -5.6269  -5.3696
    -5.3167  -5.2610  -5.1171  -4.9616  -4.8633  -4.8563  -4.7122  -4.6072
    -4.5283  -4.4617  -4.4101  -4.3939  -4.3117  -4.3021  -4.0974  -3.7935
    -3.5889   0.6311   0.8997   1.2903   1.7622   2.0287   2.0832   2.1063
     2.2239   2.2307   2.2826   2.4084   2.4998   2.7246   2.8164   2.8898
     3.1739   3.2683   3.3808   3.5850   3.6078   3.6110   3.6981   3.7279
     3.7490   3.8721   3.9348   3.9601   4.1089   4.2444   4.2500   4.4581
     4.4819   4.4837   4.6442   4.7276   4.8384   4.8699   4.9317   4.9701

     occupation numbers 
     1.0000   1.0000   1.0000   1.0000   1.0000   1.0000   1.0000   1.0000
     1.0000   1.0000   1.0000   1.0000   1.0000   1.0000   1.0000   1.0000
     1.0000   1.0000   1.0000   1.0000   1.0000   1.0000   1.0000   1.0000
     1.0000   1.0000   1.0000   1.0000   1.0000   1.0000   1.0000   1.0000
     1.0000   1.0000   1.0000   1.0000   1.0000   1.0000   1.0000   1.0000
     1.0000   1.0000   1.0000   1.0000   1.0000   1.0000   1.0000   1.0000
     1.0000   1.0000   1.0000   1.0000   1.0000   1.0000   1.0000   1.0000
     1.0000   1.0000   1.0000   1.0000   1.0000   1.0000   1.0000   1.0000
     1.0000   1.0000   1.0000   1.0000   1.0000   1.0000   1.0000   1.0000
     1.0000   1.0000   1.0000   1.0000   1.0000   1.0000   1.0000   1.0000
     1.0000   0.0000   0.0000   0.0000   0.0000   0.0000   0.0000   0.0000
     0.0000   0.0000   0.0000   0.0000   0.0000   0.0000   0.0000   0.0000
     0.0000   0.0000   0.0000   0.0000   0.0000   0.0000   0.0000   0.0000
     0.0000   0.0000   0.0000   0.0000   0.0000   0.0000   0.0000   0.0000
     0.0000   0.0000   0.0000   0.0000   0.0000   0.0000   0.0000   0.0000

          k = 0.0417 0.0000 0.0000 (151677 PWs)   bands (ev):

   -20.6129 -20.5613 -20.4807 -20.3754 -20.2439 -20.0874 -19.9038 -19.6947
   -19.4596 -19.1989 -18.9118 -18.6001 -18.2643 -17.9042 -17.5221 -17.1197
   -16.7018 -16.2773 -15.8680 -15.5408 -14.1846 -13.7901 -13.2994 -12.7652
   -12.2025 -11.6201 -11.0223 -10.4143  -9.7995  -9.1821  -8.7119  -8.6528
    -8.5668  -8.5602  -8.4383  -8.2857  -8.1038  -7.9613  -7.8911  -7.6781
    -7.6495  -7.6302  -7.5549  -7.4573  -7.3793  -7.3735  -7.3334  -7.1932
    -7.0815  -7.0252  -6.8473  -6.7945  -6.7567  -6.6330  -6.4080  -6.4072
    -6.2756  -6.1600  -6.0379  -5.9290  -5.7674  -5.6692  -5.6491  -5.4084
    -5.3426  -5.2483  -5.1499  -5.0012  -4.8852  -4.8436  -4.7555  -4.6275
    -4.5691  -4.4489  -4.4342  -4.4327  -4.3503  -4.3240  -4.0844  -3.7803
    -3.5754   0.6279   0.8967   1.2872   1.7590   2.0438   2.0983   2.1208
     2.2384   2.2454   2.2795   2.4227   2.5148   2.7393   2.8143   2.9050
     3.1888   3.2717   3.3960   3.5938   3.6213   3.6258   3.7116   3.7429
     3.7600   3.8798   3.9480   3.9754   4.1230   4.2577   4.2593   4.4627
     4.4970   4.4988   4.6592   4.7308   4.8521   4.8848   4.9466   4.9783

     occupation numbers 
     1.0000   1.0000   1.0000   1.0000   1.0000   1.0000   1.0000   1.0000
     1.0000   1.0000   1.0000   1.0000   1.0000   1.0000   1.0000   1.0000
     1.0000   1.0000   1.0000   1.0000   1.0000   1.0000   1.0000   1.0000
     1.0000   1.0000   1.0000   1.0000   1.0000   1.0000   1.0000   1.0000
     1.0000   1.0000   1.0000   1.0000   1.0000   1.0000   1.0000   1.0000
     1.0000   1.0000   1.0000   1.0000   1.0000   1.0000   1.0000   1.0000
     1.0000   1.0000   1.0000   1.0000   1.0000   1.0000   1.0000   1.0000
     1.0000   1.0000   1.0000   1.0000   1.0000   1.0000   1.0000   1.0000
     1.0000   1.0000   1.0000   1.0000   1.0000   1.0000   1.0000   1.0000
     1.0000   1.0000   1.0000   1.0000   1.0000   1.0000   1.0000   1.0000
     1.0000   0.0000   0.0000   0.0000   0.0000   0.0000   0.0000   0.0000
     0.0000   0.0000   0.0000   0.0000   0.0000   0.0000   0.0000   0.0000
     0.0000   0.0000   0.0000   0.0000   0.0000   0.0000   0.0000   0.0000
     0.0000   0.0000   0.0000   0.0000   0.0000   0.0000   0.0000   0.0000
     0.0000   0.0000   0.0000   0.0000   0.0000   0.0000   0.0000   0.0000

          k = 0.0500 0.0000 0.0000 (151663 PWs)   bands (ev):

   -20.5992 -20.5477 -20.4670 -20.3618 -20.2303 -20.0739 -19.8903 -19.6812
   -19.4461 -19.1855 -18.8985 -18.5868 -18.2512 -17.8912 -17.5092 -17.1070
   -16.6893 -16.2650 -15.8559 -15.5290 -14.1732 -13.7790 -13.2888 -12.7551
   -12.1932 -11.6117 -11.0149 -10.4083  -9.7952  -9.1798  -8.6957  -8.6366
    -8.5671  -8.5440  -8.4221  -8.2696  -8.0877  -7.9649  -7.8751  -7.7369
    -7.6889  -7.6336  -7.6135  -7.5155  -7.4006  -7.3723  -7.3634  -7.2508
    -7.0819  -7.0657  -6.9016  -6.8093  -6.7410  -6.6886  -6.4607  -6.3924
    -6.3019  -6.2038  -6.0224  -5.9823  -5.7899  -5.7194  -5.6336  -5.4542
    -5.3764  -5.2329  -5.1879  -5.0485  -4.9130  -4.8281  -4.8049  -4.6562
    -4.6157  -4.4769  -4.4689  -4.4332  -4.3924  -4.3511  -4.0686  -3.7641
    -3.5590   0.6239   0.8928   1.2832   1.7550   2.0623   2.1167   2.1384
     2.2561   2.2633   2.2756   2.4401   2.5331   2.7572   2.8114   2.9235
     3.2070   3.2753   3.4147   3.6043   3.6377   3.6440   3.7282   3.7612
     3.7730   3.8898   3.9641   3.9941   4.1404   4.2663   4.2774   4.4693
     4.5155   4.5172   4.6775   4.7336   4.8689   4.9031   4.9648   4.9887

     occupation numbers 
     1.0000   1.0000   1.0000   1.0000   1.0000   1.0000   1.0000   1.0000
     1.0000   1.0000   1.0000   1.0000   1.0000   1.0000   1.0000   1.0000
     1.0000   1.0000   1.0000   1.0000   1.0000   1.0000   1.0000   1.0000
     1.0000   1.0000   1.0000   1.0000   1.0000   1.0000   1.0000   1.0000
     1.0000   1.0000   1.0000   1.0000   1.0000   1.0000   1.0000   1.0000
     1.0000   1.0000   1.0000   1.0000   1.0000   1.0000   1.0000   1.0000
     1.0000   1.0000   1.0000   1.0000   1.0000   1.0000   1.0000   1.0000
     1.0000   1.0000   1.0000   1.0000   1.0000   1.0000   1.0000   1.0000
     1.0000   1.0000   1.0000   1.0000   1.0000   1.0000   1.0000   1.0000
     1.0000   1.0000   1.0000   1.0000   1.0000   1.0000   1.0000   1.0000
     1.0000   0.0000   0.0000   0.0000   0.0000   0.0000   0.0000   0.0000
     0.0000   0.0000   0.0000   0.0000   0.0000   0.0000   0.0000   0.0000
     0.0000   0.0000   0.0000   0.0000   0.0000   0.0000   0.0000   0.0000
     0.0000   0.0000   0.0000   0.0000   0.0000   0.0000   0.0000   0.0000
     0.0000   0.0000   0.0000   0.0000   0.0000   0.0000   0.0000   0.0000

          k = 0.0583 0.0000 0.0000 (151627 PWs)   bands (ev):

   -20.5831 -20.5316 -20.4509 -20.3457 -20.2143 -20.0578 -19.8743 -19.6653
   -19.4303 -19.1698 -18.8828 -18.5712 -18.2357 -17.8758 -17.4940 -17.0920
   -16.6744 -16.2504 -15.8417 -15.5151 -14.1597 -13.7660 -13.2763 -12.7433
   -12.1822 -11.6018 -11.0063 -10.4013  -9.7902  -9.1773  -8.6765  -8.6174
    -8.5677  -8.5249  -8.4030  -8.2505  -8.0687  -7.9696  -7.8562  -7.8054
    -7.7572  -7.6817  -7.6148  -7.5834  -7.4642  -7.3865  -7.3447  -7.3178
    -7.1475  -7.0471  -6.9663  -6.8265  -6.7530  -6.7224  -6.5223  -6.3740
    -6.3414  -6.2472  -6.0433  -6.0040  -5.8188  -5.7768  -5.6153  -5.5060
    -5.4187  -5.2304  -5.2146  -5.1026  -4.9481  -4.8593  -4.8098  -4.6952
    -4.6666  -4.5240  -4.5178  -4.4342  -4.4148  -4.3833  -4.0499  -3.7450
    -3.5396   0.6191   0.8880   1.2784   1.7500   2.0842   2.1385   2.1593
     2.2706   2.2770   2.2845   2.4607   2.5547   2.7783   2.8076   2.9454
     3.2285   3.2788   3.4367   3.6162   3.6571   3.6654   3.7480   3.7828
     3.7875   3.9028   3.9829   4.0162   4.1610   4.2752   4.2988   4.4783
     4.5372   4.5390   4.6991   4.7353   4.8888   4.9246   4.9863   5.0019

     occupation numbers 
     1.0000   1.0000   1.0000   1.0000   1.0000   1.0000   1.0000   1.0000
     1.0000   1.0000   1.0000   1.0000   1.0000   1.0000   1.0000   1.0000
     1.0000   1.0000   1.0000   1.0000   1.0000   1.0000   1.0000   1.0000
     1.0000   1.0000   1.0000   1.0000   1.0000   1.0000   1.0000   1.0000
     1.0000   1.0000   1.0000   1.0000   1.0000   1.0000   1.0000   1.0000
     1.0000   1.0000   1.0000   1.0000   1.0000   1.0000   1.0000   1.0000
     1.0000   1.0000   1.0000   1.0000   1.0000   1.0000   1.0000   1.0000
     1.0000   1.0000   1.0000   1.0000   1.0000   1.0000   1.0000   1.0000
     1.0000   1.0000   1.0000   1.0000   1.0000   1.0000   1.0000   1.0000
     1.0000   1.0000   1.0000   1.0000   1.0000   1.0000   1.0000   1.0000
     1.0000   0.0000   0.0000   0.0000   0.0000   0.0000   0.0000   0.0000
     0.0000   0.0000   0.0000   0.0000   0.0000   0.0000   0.0000   0.0000
     0.0000   0.0000   0.0000   0.0000   0.0000   0.0000   0.0000   0.0000
     0.0000   0.0000   0.0000   0.0000   0.0000   0.0000   0.0000   0.0000
     0.0000   0.0000   0.0000   0.0000   0.0000   0.0000   0.0000   0.0000

          k = 0.0667 0.0000 0.0000 (151627 PWs)   bands (ev):

   -20.5645 -20.5130 -20.4324 -20.3272 -20.1958 -20.0394 -19.8559 -19.6469
   -19.4120 -19.1515 -18.8646 -18.5532 -18.2178 -17.8581 -17.4764 -17.0746
   -16.6574 -16.2336 -15.8253 -15.4990 -14.1442 -13.7509 -13.2619 -12.7297
   -12.1697 -11.5904 -10.9965 -10.3934  -9.7846  -9.1747  -8.6543  -8.5953
    -8.5689  -8.5028  -8.3810  -8.2285  -8.0468  -7.9759  -7.8831  -7.8347
    -7.8343  -7.7591  -7.6603  -7.5930  -7.5400  -7.4009  -7.3937  -7.3231
    -7.2211  -7.0401  -7.0256  -6.8480  -6.8256  -6.7011  -6.5907  -6.3969
    -6.3527  -6.2875  -6.1115  -5.9829  -5.8550  -5.8407  -5.5943  -5.5630
    -5.4695  -5.2779  -5.1936  -5.1622  -4.9920  -4.9173  -4.7887  -4.7462
    -4.7198  -4.5811  -4.5716  -4.4748  -4.4205  -4.3935  -4.0283  -3.7230
    -3.5172   0.6132   0.8822   1.2726   1.7439   2.1093   2.1637   2.1833
     2.2645   2.3012   2.3090   2.4844   2.5796   2.8027   2.8027   2.9706
     3.2533   3.2818   3.4620   3.6293   3.6794   3.6900   3.7710   3.8034
     3.8078   3.9191   4.0043   4.0417   4.1848   4.2840   4.3234   4.4905
     4.5624   4.5641   4.7241   4.7355   4.9117   4.9495   5.0112   5.0180

     occupation numbers 
     1.0000   1.0000   1.0000   1.0000   1.0000   1.0000   1.0000   1.0000
     1.0000   1.0000   1.0000   1.0000   1.0000   1.0000   1.0000   1.0000
     1.0000   1.0000   1.0000   1.0000   1.0000   1.0000   1.0000   1.0000
     1.0000   1.0000   1.0000   1.0000   1.0000   1.0000   1.0000   1.0000
     1.0000   1.0000   1.0000   1.0000   1.0000   1.0000   1.0000   1.0000
     1.0000   1.0000   1.0000   1.0000   1.0000   1.0000   1.0000   1.0000
     1.0000   1.0000   1.0000   1.0000   1.0000   1.0000   1.0000   1.0000
     1.0000   1.0000   1.0000   1.0000   1.0000   1.0000   1.0000   1.0000
     1.0000   1.0000   1.0000   1.0000   1.0000   1.0000   1.0000   1.0000
     1.0000   1.0000   1.0000   1.0000   1.0000   1.0000   1.0000   1.0000
     1.0000   0.0000   0.0000   0.0000   0.0000   0.0000   0.0000   0.0000
     0.0000   0.0000   0.0000   0.0000   0.0000   0.0000   0.0000   0.0000
     0.0000   0.0000   0.0000   0.0000   0.0000   0.0000   0.0000   0.0000
     0.0000   0.0000   0.0000   0.0000   0.0000   0.0000   0.0000   0.0000
     0.0000   0.0000   0.0000   0.0000   0.0000   0.0000   0.0000   0.0000

          k = 0.0750 0.0000 0.0000 (151621 PWs)   bands (ev):

   -20.5435 -20.4920 -20.4114 -20.3062 -20.1748 -20.0184 -19.8350 -19.6261
   -19.3912 -19.1309 -18.8441 -18.5328 -18.1975 -17.8380 -17.4565 -17.0550
   -16.6380 -16.2146 -15.8067 -15.4809 -14.1267 -13.7339 -13.2457 -12.7144
   -12.1555 -11.5777 -10.9856 -10.3847  -9.7787  -9.1722  -8.6293  -8.5709
    -8.5703  -8.4778  -8.3560  -8.2037  -8.0220  -7.9844  -7.9697  -7.9209
    -7.8452  -7.8096  -7.7458  -7.6249  -7.5684  -7.4779  -7.4203  -7.3006
    -7.2986  -7.1221  -7.0013  -6.9057  -6.8759  -6.6769  -6.6644  -6.4663
    -6.3287  -6.3272  -6.1860  -5.9589  -5.9100  -5.8993  -5.6245  -5.5704
    -5.5280  -5.3311  -5.2258  -5.1698  -5.0462  -4.9772  -4.8099  -4.7736
    -4.7648  -4.6559  -4.6186  -4.5163  -4.4627  -4.3694  -4.0038  -3.6981
    -3.4918   0.6063   0.8753   1.2656   1.7367   2.1379   2.1922   2.2105
     2.2571   2.3284   2.3368   2.5113   2.6079   2.7965   2.8303   2.9992
     3.2813   3.2840   3.4908   3.6433   3.7046   3.7178   3.7972   3.8204
     3.8360   3.9394   4.0282   4.0706   4.2118   4.2925   4.3513   4.5066
     4.5908   4.5925   4.7334   4.7523   4.9378   4.9777   5.0375   5.0393

     occupation numbers 
     1.0000   1.0000   1.0000   1.0000   1.0000   1.0000   1.0000   1.0000
     1.0000   1.0000   1.0000   1.0000   1.0000   1.0000   1.0000   1.0000
     1.0000   1.0000   1.0000   1.0000   1.0000   1.0000   1.0000   1.0000
     1.0000   1.0000   1.0000   1.0000   1.0000   1.0000   1.0000   1.0000
     1.0000   1.0000   1.0000   1.0000   1.0000   1.0000   1.0000   1.0000
     1.0000   1.0000   1.0000   1.0000   1.0000   1.0000   1.0000   1.0000
     1.0000   1.0000   1.0000   1.0000   1.0000   1.0000   1.0000   1.0000
     1.0000   1.0000   1.0000   1.0000   1.0000   1.0000   1.0000   1.0000
     1.0000   1.0000   1.0000   1.0000   1.0000   1.0000   1.0000   1.0000
     1.0000   1.0000   1.0000   1.0000   1.0000   1.0000   1.0000   1.0000
     1.0000   0.0000   0.0000   0.0000   0.0000   0.0000   0.0000   0.0000
     0.0000   0.0000   0.0000   0.0000   0.0000   0.0000   0.0000   0.0000
     0.0000   0.0000   0.0000   0.0000   0.0000   0.0000   0.0000   0.0000
     0.0000   0.0000   0.0000   0.0000   0.0000   0.0000   0.0000   0.0000
     0.0000   0.0000   0.0000   0.0000   0.0000   0.0000   0.0000   0.0000

          k = 0.0833 0.0000 0.0000 (151615 PWs)   bands (ev):

   -20.5199 -20.4685 -20.3879 -20.2827 -20.1514 -19.9951 -19.8117 -19.6029
   -19.3681 -19.1078 -18.8211 -18.5100 -18.1749 -17.8156 -17.4343 -17.0331
   -16.6164 -16.1934 -15.7859 -15.4605 -14.1072 -13.7150 -13.2276 -12.6974
   -12.1398 -11.5637 -10.9736 -10.3753  -9.7725  -9.1701  -8.6013  -8.5741
    -8.5423  -8.4498  -8.3281  -8.1759  -8.0646  -8.0176  -7.9943  -7.9934
    -7.9395  -7.8390  -7.7820  -7.7180  -7.5699  -7.5410  -7.4526  -7.3789
    -7.2713  -7.2116  -6.9923  -6.9741  -6.9130  -6.7406  -6.6499  -6.5457
    -6.3701  -6.3018  -6.2661  -5.9839  -5.9521  -5.9322  -5.6903  -5.5928
    -5.5438  -5.3916  -5.2918  -5.1432  -5.1115  -5.0375  -4.8852  -4.8268
    -4.7397  -4.7382  -4.6649  -4.5604  -4.5098  -4.3426  -3.9765  -3.6702
    -3.4634   0.5981   0.8673   1.2575   1.7281   2.1698   2.2240   2.2408
     2.2483   2.3589   2.3678   2.5414   2.6395   2.7886   2.8612   3.0311
     3.2846   3.3127   3.5229   3.6576   3.7327   3.7487   3.8267   3.8384
     3.8675   3.9637   4.0542   4.1028   4.2421   4.3005   4.3824   4.5269
     4.6225   4.6243   4.7285   4.7838   4.9668   5.0092   5.0605   5.0708

     occupation numbers 
     1.0000   1.0000   1.0000   1.0000   1.0000   1.0000   1.0000   1.0000
     1.0000   1.0000   1.0000   1.0000   1.0000   1.0000   1.0000   1.0000
     1.0000   1.0000   1.0000   1.0000   1.0000   1.0000   1.0000   1.0000
     1.0000   1.0000   1.0000   1.0000   1.0000   1.0000   1.0000   1.0000
     1.0000   1.0000   1.0000   1.0000   1.0000   1.0000   1.0000   1.0000
     1.0000   1.0000   1.0000   1.0000   1.0000   1.0000   1.0000   1.0000
     1.0000   1.0000   1.0000   1.0000   1.0000   1.0000   1.0000   1.0000
     1.0000   1.0000   1.0000   1.0000   1.0000   1.0000   1.0000   1.0000
     1.0000   1.0000   1.0000   1.0000   1.0000   1.0000   1.0000   1.0000
     1.0000   1.0000   1.0000   1.0000   1.0000   1.0000   1.0000   1.0000
     1.0000   0.0000   0.0000   0.0000   0.0000   0.0000   0.0000   0.0000
     0.0000   0.0000   0.0000   0.0000   0.0000   0.0000   0.0000   0.0000
     0.0000   0.0000   0.0000   0.0000   0.0000   0.0000   0.0000   0.0000
     0.0000   0.0000   0.0000   0.0000   0.0000   0.0000   0.0000   0.0000
     0.0000   0.0000   0.0000   0.0000   0.0000   0.0000   0.0000   0.0000

          k = 0.0917 0.0000 0.0000 (151623 PWs)   bands (ev):

   -20.4939 -20.4425 -20.3619 -20.2568 -20.1255 -19.9692 -19.7859 -19.5772
   -19.3425 -19.0823 -18.7958 -18.4848 -18.1499 -17.7908 -17.4098 -17.0088
   -16.5925 -16.1699 -15.7629 -15.4381 -14.0857 -13.6942 -13.2077 -12.6788
   -12.1227 -11.5484 -10.9606 -10.3652  -9.7662  -9.1686  -8.5789  -8.5703
    -8.5114  -8.4190  -8.2973  -8.1672  -8.1452  -8.1188  -8.0415  -8.0108
    -7.9637  -7.9379  -7.8185  -7.7516  -7.6687  -7.5196  -7.5107  -7.4346
    -7.3077  -7.2411  -7.0843  -6.9637  -6.9441  -6.8150  -6.6325  -6.6201
    -6.4189  -6.3509  -6.2722  -6.0617  -6.0128  -5.9028  -5.7607  -5.6619
    -5.5145  -5.4605  -5.3587  -5.1874  -5.1139  -5.0973  -4.9699  -4.8812
    -4.8290  -4.7116  -4.7088  -4.6079  -4.5615  -4.3129  -3.9464  -3.6395
    -3.4321   0.5886   0.8579   1.2480   1.7181   2.2050   2.2379   2.2592
     2.2742   2.3924   2.4021   2.5746   2.6744   2.7790   2.8953   3.0664
     3.2833   3.3473   3.5584   3.6718   3.7636   3.7826   3.8578   3.8595
     3.9023   3.9924   4.0819   4.1385   4.2755   4.3087   4.4167   4.5517
     4.6575   4.6593   4.7205   4.8185   4.9986   5.0441   5.0871   5.1056

     occupation numbers 
     1.0000   1.0000   1.0000   1.0000   1.0000   1.0000   1.0000   1.0000
     1.0000   1.0000   1.0000   1.0000   1.0000   1.0000   1.0000   1.0000
     1.0000   1.0000   1.0000   1.0000   1.0000   1.0000   1.0000   1.0000
     1.0000   1.0000   1.0000   1.0000   1.0000   1.0000   1.0000   1.0000
     1.0000   1.0000   1.0000   1.0000   1.0000   1.0000   1.0000   1.0000
     1.0000   1.0000   1.0000   1.0000   1.0000   1.0000   1.0000   1.0000
     1.0000   1.0000   1.0000   1.0000   1.0000   1.0000   1.0000   1.0000
     1.0000   1.0000   1.0000   1.0000   1.0000   1.0000   1.0000   1.0000
     1.0000   1.0000   1.0000   1.0000   1.0000   1.0000   1.0000   1.0000
     1.0000   1.0000   1.0000   1.0000   1.0000   1.0000   1.0000   1.0000
     1.0000   0.0000   0.0000   0.0000   0.0000   0.0000   0.0000   0.0000
     0.0000   0.0000   0.0000   0.0000   0.0000   0.0000   0.0000   0.0000
     0.0000   0.0000   0.0000   0.0000   0.0000   0.0000   0.0000   0.0000
     0.0000   0.0000   0.0000   0.0000   0.0000   0.0000   0.0000   0.0000
     0.0000   0.0000   0.0000   0.0000   0.0000   0.0000   0.0000   0.0000

          k = 0.1000 0.0000 0.0000 (151621 PWs)   bands (ev):

   -20.4655 -20.4140 -20.3335 -20.2284 -20.0971 -19.9409 -19.7577 -19.5490
   -19.3144 -19.0544 -18.7680 -18.4572 -18.1225 -17.7636 -17.3829 -16.9823
   -16.5664 -16.1442 -15.7378 -15.4135 -14.0623 -13.6716 -13.1861 -12.6585
   -12.1041 -11.5319 -10.9468 -10.3548  -9.7600  -9.1680  -8.5859  -8.5365
    -8.4776  -8.3852  -8.2770  -8.2636  -8.2283  -8.1506  -8.1115  -8.0601
    -8.0153  -7.9302  -7.9259  -7.7735  -7.7182  -7.6157  -7.4775  -7.4746
    -7.4097  -7.2081  -7.1803  -7.0322  -6.9113  -6.8841  -6.7251  -6.5875
    -6.4750  -6.4394  -6.2398  -6.1429  -6.0805  -5.8705  -5.8365  -5.7337
    -5.5379  -5.4824  -5.4259  -5.2718  -5.1582  -5.0819  -5.0599  -4.9513
    -4.9085  -4.7597  -4.6767  -4.6592  -4.6179  -4.2805  -3.9135  -3.6059
    -3.3978   0.5776   0.8471   1.2369   1.7065   2.2257   2.2436   2.2978
     2.3108   2.4291   2.4397   2.6109   2.7127   2.7672   2.9327   3.1050
     3.2794   3.3853   3.5972   3.6852   3.7974   3.8190   3.8792   3.8954
     3.9404   4.0253   4.1107   4.1775   4.3119   4.3182   4.4543   4.5809
     4.6942   4.6976   4.7107   4.8565   5.0328   5.0823   5.1174   5.1437

     occupation numbers 
     1.0000   1.0000   1.0000   1.0000   1.0000   1.0000   1.0000   1.0000
     1.0000   1.0000   1.0000   1.0000   1.0000   1.0000   1.0000   1.0000
     1.0000   1.0000   1.0000   1.0000   1.0000   1.0000   1.0000   1.0000
     1.0000   1.0000   1.0000   1.0000   1.0000   1.0000   1.0000   1.0000
     1.0000   1.0000   1.0000   1.0000   1.0000   1.0000   1.0000   1.0000
     1.0000   1.0000   1.0000   1.0000   1.0000   1.0000   1.0000   1.0000
     1.0000   1.0000   1.0000   1.0000   1.0000   1.0000   1.0000   1.0000
     1.0000   1.0000   1.0000   1.0000   1.0000   1.0000   1.0000   1.0000
     1.0000   1.0000   1.0000   1.0000   1.0000   1.0000   1.0000   1.0000
     1.0000   1.0000   1.0000   1.0000   1.0000   1.0000   1.0000   1.0000
     1.0000   0.0000   0.0000   0.0000   0.0000   0.0000   0.0000   0.0000
     0.0000   0.0000   0.0000   0.0000   0.0000   0.0000   0.0000   0.0000
     0.0000   0.0000   0.0000   0.0000   0.0000   0.0000   0.0000   0.0000
     0.0000   0.0000   0.0000   0.0000   0.0000   0.0000   0.0000   0.0000
     0.0000   0.0000   0.0000   0.0000   0.0000   0.0000   0.0000   0.0000

          k = 0.1083 0.0000 0.0000 (151569 PWs)   bands (ev):

   -20.4345 -20.3831 -20.3026 -20.1975 -20.0663 -19.9102 -19.7271 -19.5185
   -19.2840 -19.0241 -18.7379 -18.4272 -18.0928 -17.7341 -17.3537 -16.9535
   -16.5380 -16.1163 -15.7105 -15.3868 -14.0370 -13.6471 -13.1628 -12.6367
   -12.0842 -11.5144 -10.9323 -10.3441  -9.7543  -9.1688  -8.5958  -8.4997
    -8.4408  -8.3935  -8.3485  -8.3444  -8.2661  -8.2270  -8.1687  -8.0751
    -8.0467  -8.0394  -7.8938  -7.8821  -7.7231  -7.6820  -7.5181  -7.5166
    -7.4414  -7.2780  -7.1723  -7.1172  -6.9490  -6.8757  -6.8219  -6.5521
    -6.5389  -6.5308  -6.2274  -6.2046  -6.1536  -5.9178  -5.8355  -5.8075
    -5.6221  -5.4950  -5.4476  -5.3604  -5.2277  -5.1464  -5.0506  -5.0471
    -4.9649  -4.8100  -4.7143  -4.6787  -4.6419  -4.2454  -3.8778  -3.5694
    -3.3606   0.5651   0.8346   1.2242   1.6931   2.2114   2.2856   2.3396
     2.3504   2.4689   2.4805   2.6505   2.7530   2.7542   2.9733   3.1470
     3.2724   3.4264   3.6395   3.6966   3.8341   3.8571   3.9036   3.9345
     3.9818   4.0622   4.1398   4.2199   4.3307   4.3513   4.4950   4.6145
     4.6929   4.7389   4.7393   4.8977   5.0688   5.1238   5.1513   5.1851

     occupation numbers 
     1.0000   1.0000   1.0000   1.0000   1.0000   1.0000   1.0000   1.0000
     1.0000   1.0000   1.0000   1.0000   1.0000   1.0000   1.0000   1.0000
     1.0000   1.0000   1.0000   1.0000   1.0000   1.0000   1.0000   1.0000
     1.0000   1.0000   1.0000   1.0000   1.0000   1.0000   1.0000   1.0000
     1.0000   1.0000   1.0000   1.0000   1.0000   1.0000   1.0000   1.0000
     1.0000   1.0000   1.0000   1.0000   1.0000   1.0000   1.0000   1.0000
     1.0000   1.0000   1.0000   1.0000   1.0000   1.0000   1.0000   1.0000
     1.0000   1.0000   1.0000   1.0000   1.0000   1.0000   1.0000   1.0000
     1.0000   1.0000   1.0000   1.0000   1.0000   1.0000   1.0000   1.0000
     1.0000   1.0000   1.0000   1.0000   1.0000   1.0000   1.0000   1.0000
     1.0000   0.0000   0.0000   0.0000   0.0000   0.0000   0.0000   0.0000
     0.0000   0.0000   0.0000   0.0000   0.0000   0.0000   0.0000   0.0000
     0.0000   0.0000   0.0000   0.0000   0.0000   0.0000   0.0000   0.0000
     0.0000   0.0000   0.0000   0.0000   0.0000   0.0000   0.0000   0.0000
     0.0000   0.0000   0.0000   0.0000   0.0000   0.0000   0.0000   0.0000

          k = 0.1167 0.0000 0.0000 (151603 PWs)   bands (ev):

   -20.4011 -20.3497 -20.2692 -20.1642 -20.0331 -19.8770 -19.6940 -19.4855
   -19.2511 -18.9914 -18.7053 -18.3949 -18.0606 -17.7023 -17.3222 -16.9224
   -16.5073 -16.0862 -15.6810 -15.3579 -14.0099 -13.6208 -13.1378 -12.6134
   -12.0630 -11.4959 -10.9172 -10.3334  -9.7493  -9.1716  -8.6098  -8.5160
    -8.4666  -8.4600  -8.4012  -8.3873  -8.3089  -8.2884  -8.1875  -8.1584
    -8.0867  -8.0357  -7.9885  -7.8546  -7.8372  -7.6430  -7.6272  -7.5728
    -7.4026  -7.3743  -7.2137  -7.1336  -7.0146  -6.9219  -6.8373  -6.6246
    -6.6099  -6.5139  -6.3150  -6.2311  -6.1667  -6.0037  -5.8843  -5.7979
    -5.7094  -5.5717  -5.4457  -5.4101  -5.3184  -5.2163  -5.1619  -5.0158
    -5.0097  -4.8630  -4.7733  -4.7437  -4.6043  -4.2076  -3.8393  -3.5300
    -3.3204   0.5507   0.8204   1.2097   1.6777   2.1949   2.3308   2.3848
     2.3931   2.5117   2.5247   2.6932   2.7363   2.7991   3.0172   3.1923
     3.2618   3.4709   3.6850   3.7050   3.8735   3.8944   3.9336   3.9766
     4.0264   4.1029   4.1683   4.2657   4.3481   4.3932   4.5390   4.6521
     4.6757   4.7836   4.7842   4.9422   5.1047   5.1686   5.1883   5.2298

     occupation numbers 
     1.0000   1.0000   1.0000   1.0000   1.0000   1.0000   1.0000   1.0000
     1.0000   1.0000   1.0000   1.0000   1.0000   1.0000   1.0000   1.0000
     1.0000   1.0000   1.0000   1.0000   1.0000   1.0000   1.0000   1.0000
     1.0000   1.0000   1.0000   1.0000   1.0000   1.0000   1.0000   1.0000
     1.0000   1.0000   1.0000   1.0000   1.0000   1.0000   1.0000   1.0000
     1.0000   1.0000   1.0000   1.0000   1.0000   1.0000   1.0000   1.0000
     1.0000   1.0000   1.0000   1.0000   1.0000   1.0000   1.0000   1.0000
     1.0000   1.0000   1.0000   1.0000   1.0000   1.0000   1.0000   1.0000
     1.0000   1.0000   1.0000   1.0000   1.0000   1.0000   1.0000   1.0000
     1.0000   1.0000   1.0000   1.0000   1.0000   1.0000   1.0000   1.0000
     1.0000   0.0000   0.0000   0.0000   0.0000   0.0000   0.0000   0.0000
     0.0000   0.0000   0.0000   0.0000   0.0000   0.0000   0.0000   0.0000
     0.0000   0.0000   0.0000   0.0000   0.0000   0.0000   0.0000   0.0000
     0.0000   0.0000   0.0000   0.0000   0.0000   0.0000   0.0000   0.0000
     0.0000   0.0000   0.0000   0.0000   0.0000   0.0000   0.0000   0.0000

          k = 0.1250 0.0000 0.0000 (151567 PWs)   bands (ev):

   -20.3653 -20.3139 -20.2334 -20.1284 -19.9974 -19.8414 -19.6584 -19.4500
   -19.2158 -18.9562 -18.6704 -18.3602 -18.0262 -17.6681 -17.2884 -16.8890
   -16.4744 -16.0539 -15.6493 -15.3270 -13.9810 -13.5928 -13.1112 -12.5886
   -12.0406 -11.4765 -10.9018 -10.3231  -9.7457  -9.1771  -8.6454  -8.6286
    -8.5943  -8.5131  -8.4174  -8.4139  -8.3586  -8.2820  -8.2665  -8.1620
    -8.1452  -8.0717  -7.9934  -7.9559  -7.8125  -7.7401  -7.6435  -7.6011
    -7.4659  -7.3609  -7.3172  -7.0922  -7.0847  -7.0240  -6.7961  -6.7200
    -6.6875  -6.4730  -6.4051  -6.3129  -6.1260  -6.0913  -5.9680  -5.7935
    -5.7575  -5.6640  -5.5188  -5.4276  -5.3699  -5.2798  -5.2723  -5.0667
    -4.9696  -4.9190  -4.8360  -4.8129  -4.5641  -4.1670  -3.7981  -3.4878
    -3.2772   0.5344   0.8042   1.1932   1.6602   2.1760   2.3794   2.4333
     2.4388   2.5575   2.5722   2.7166   2.7391   2.8473   3.0643   3.2410
     3.2470   3.5186   3.7089   3.7340   3.9158   3.9278   3.9722   4.0217
     4.0743   4.1471   4.1958   4.3148   4.3722   4.4368   4.5861   4.6566
     4.6932   4.8318   4.8324   4.9899   5.1358   5.2168   5.2280   5.2778

     occupation numbers 
     1.0000   1.0000   1.0000   1.0000   1.0000   1.0000   1.0000   1.0000
     1.0000   1.0000   1.0000   1.0000   1.0000   1.0000   1.0000   1.0000
     1.0000   1.0000   1.0000   1.0000   1.0000   1.0000   1.0000   1.0000
     1.0000   1.0000   1.0000   1.0000   1.0000   1.0000   1.0000   1.0000
     1.0000   1.0000   1.0000   1.0000   1.0000   1.0000   1.0000   1.0000
     1.0000   1.0000   1.0000   1.0000   1.0000   1.0000   1.0000   1.0000
     1.0000   1.0000   1.0000   1.0000   1.0000   1.0000   1.0000   1.0000
     1.0000   1.0000   1.0000   1.0000   1.0000   1.0000   1.0000   1.0000
     1.0000   1.0000   1.0000   1.0000   1.0000   1.0000   1.0000   1.0000
     1.0000   1.0000   1.0000   1.0000   1.0000   1.0000   1.0000   1.0000
     1.0000   0.0000   0.0000   0.0000   0.0000   0.0000   0.0000   0.0000
     0.0000   0.0000   0.0000   0.0000   0.0000   0.0000   0.0000   0.0000
     0.0000   0.0000   0.0000   0.0000   0.0000   0.0000   0.0000   0.0000
     0.0000   0.0000   0.0000   0.0000   0.0000   0.0000   0.0000   0.0000
     0.0000   0.0000   0.0000   0.0000   0.0000   0.0000   0.0000   0.0000

          k = 0.1333 0.0000 0.0000 (151537 PWs)   bands (ev):

   -20.3269 -20.2756 -20.1951 -20.0902 -19.9592 -19.8033 -19.6204 -19.4122
   -19.1781 -18.9187 -18.6330 -18.3230 -17.9893 -17.6316 -17.2523 -16.8533
   -16.4393 -16.0194 -15.6155 -15.2939 -13.9503 -13.5632 -13.0831 -12.5626
   -12.0172 -11.4566 -10.8863 -10.3134  -9.7439  -9.1863  -8.7776  -8.7269
    -8.6680  -8.6323  -8.5442  -8.4088  -8.3719  -8.3132  -8.2745  -8.2211
    -8.1319  -8.0999  -8.0780  -7.9483  -7.8533  -7.7676  -7.7312  -7.5563
    -7.5516  -7.4245  -7.3164  -7.1610  -7.1272  -7.0480  -6.8163  -6.7710
    -6.7522  -6.4958  -6.4294  -6.4014  -6.1761  -6.0827  -6.0636  -5.8680
    -5.7726  -5.7144  -5.5788  -5.5471  -5.4030  -5.3270  -5.3229  -5.1189
    -4.9782  -4.9268  -4.9025  -4.8860  -4.5213  -4.1238  -3.7541  -3.4428
    -3.2312   0.5159   0.7859   1.1745   1.6402   2.1545   2.4313   2.4851
     2.4876   2.6063   2.6230   2.6938   2.7882   2.8988   3.1147   3.2278
     3.2930   3.5697   3.7069   3.7863   3.9571   3.9608   4.0189   4.0693
     4.1255   4.1946   4.2227   4.3673   4.4038   4.4797   4.6364   4.6391
     4.7373   4.8834   4.8839   5.0408   5.1507   5.2683   5.2693   5.3021

     occupation numbers 
     1.0000   1.0000   1.0000   1.0000   1.0000   1.0000   1.0000   1.0000
     1.0000   1.0000   1.0000   1.0000   1.0000   1.0000   1.0000   1.0000
     1.0000   1.0000   1.0000   1.0000   1.0000   1.0000   1.0000   1.0000
     1.0000   1.0000   1.0000   1.0000   1.0000   1.0000   1.0000   1.0000
     1.0000   1.0000   1.0000   1.0000   1.0000   1.0000   1.0000   1.0000
     1.0000   1.0000   1.0000   1.0000   1.0000   1.0000   1.0000   1.0000
     1.0000   1.0000   1.0000   1.0000   1.0000   1.0000   1.0000   1.0000
     1.0000   1.0000   1.0000   1.0000   1.0000   1.0000   1.0000   1.0000
     1.0000   1.0000   1.0000   1.0000   1.0000   1.0000   1.0000   1.0000
     1.0000   1.0000   1.0000   1.0000   1.0000   1.0000   1.0000   1.0000
     1.0000   0.0000   0.0000   0.0000   0.0000   0.0000   0.0000   0.0000
     0.0000   0.0000   0.0000   0.0000   0.0000   0.0000   0.0000   0.0000
     0.0000   0.0000   0.0000   0.0000   0.0000   0.0000   0.0000   0.0000
     0.0000   0.0000   0.0000   0.0000   0.0000   0.0000   0.0000   0.0000
     0.0000   0.0000   0.0000   0.0000   0.0000   0.0000   0.0000   0.0000

          k = 0.1417 0.0000 0.0000 (151561 PWs)   bands (ev):

   -20.2862 -20.2348 -20.1544 -20.0496 -19.9186 -19.7628 -19.5800 -19.3719
   -19.1380 -18.8788 -18.5933 -18.2836 -17.9502 -17.5928 -17.2139 -16.8154
   -16.4019 -15.9827 -15.5796 -15.2587 -13.9180 -13.5320 -13.0536 -12.5354
   -11.9930 -11.4362 -10.8710 -10.3050  -9.7448  -9.2004  -8.9151  -8.8638
    -8.7871  -8.6861  -8.6784  -8.5362  -8.3998  -8.3236  -8.2649  -8.2022
    -8.1956  -8.1729  -8.0518  -7.9646  -7.9004  -7.8324  -7.7198  -7.6349
    -7.5339  -7.5088  -7.2691  -7.2441  -7.2304  -7.0010  -6.9120  -6.8613
    -6.7055  -6.5834  -6.4995  -6.3830  -6.2528  -6.1728  -6.0367  -5.9307
    -5.8927  -5.6729  -5.6687  -5.6307  -5.5303  -5.3719  -5.2816  -5.1729
    -5.0409  -4.9726  -4.9627  -4.8815  -4.4759  -4.0779  -3.7075  -3.3949
    -3.1822   0.4951   0.7653   1.1534   1.6178   2.1300   2.4865   2.5393
     2.5402   2.6581   2.6675   2.6771   2.8405   2.9536   3.1684   3.2037
     3.3483   3.6239   3.6977   3.8419   3.9836   4.0087   4.0712   4.1191
     4.1799   4.2448   4.2507   4.4232   4.4425   4.5147   4.6318   4.6898
     4.7834   4.9382   4.9387   5.0949   5.1393   5.3099   5.3231   5.3238

     occupation numbers 
     1.0000   1.0000   1.0000   1.0000   1.0000   1.0000   1.0000   1.0000
     1.0000   1.0000   1.0000   1.0000   1.0000   1.0000   1.0000   1.0000
     1.0000   1.0000   1.0000   1.0000   1.0000   1.0000   1.0000   1.0000
     1.0000   1.0000   1.0000   1.0000   1.0000   1.0000   1.0000   1.0000
     1.0000   1.0000   1.0000   1.0000   1.0000   1.0000   1.0000   1.0000
     1.0000   1.0000   1.0000   1.0000   1.0000   1.0000   1.0000   1.0000
     1.0000   1.0000   1.0000   1.0000   1.0000   1.0000   1.0000   1.0000
     1.0000   1.0000   1.0000   1.0000   1.0000   1.0000   1.0000   1.0000
     1.0000   1.0000   1.0000   1.0000   1.0000   1.0000   1.0000   1.0000
     1.0000   1.0000   1.0000   1.0000   1.0000   1.0000   1.0000   1.0000
     1.0000   0.0000   0.0000   0.0000   0.0000   0.0000   0.0000   0.0000
     0.0000   0.0000   0.0000   0.0000   0.0000   0.0000   0.0000   0.0000
     0.0000   0.0000   0.0000   0.0000   0.0000   0.0000   0.0000   0.0000
     0.0000   0.0000   0.0000   0.0000   0.0000   0.0000   0.0000   0.0000
     0.0000   0.0000   0.0000   0.0000   0.0000   0.0000   0.0000   0.0000

          k = 0.1500 0.0000 0.0000 (151567 PWs)   bands (ev):

   -20.2429 -20.1916 -20.1113 -20.0065 -19.8756 -19.7199 -19.5372 -19.3292
   -19.0954 -18.8364 -18.5512 -18.2417 -17.9086 -17.5516 -17.1732 -16.7752
   -16.3623 -15.9438 -15.5415 -15.2213 -13.8841 -13.4993 -13.0228 -12.5071
   -11.9681 -11.4157 -10.8564 -10.2984  -9.7493  -9.2211  -9.0566  -9.0044
    -8.9253  -8.8158  -8.7459  -8.6547  -8.5301  -8.3272  -8.2727  -8.2724
    -8.2137  -8.1218  -8.0713  -8.0009  -7.9414  -7.8496  -7.7204  -7.6692
    -7.6435  -7.4585  -7.3343  -7.3324  -7.2191  -7.0045  -6.9602  -6.9512
    -6.6640  -6.6561  -6.6091  -6.3340  -6.3186  -6.2932  -6.0203  -5.9880
    -5.9840  -5.8033  -5.6845  -5.6554  -5.6204  -5.4209  -5.2335  -5.2293
    -5.1073  -5.0461  -5.0424  -4.8336  -4.4279  -4.0295  -3.6581  -3.3443
    -3.1303   0.4718   0.7422   1.1298   1.5926   2.1025   2.5449   2.5941
     2.5985   2.6376   2.7128   2.7345   2.8960   3.0117   3.1746   3.2253
     3.4069   3.6803   3.6815   3.9009   4.0067   4.0594   4.1277   4.1703
     4.2376   4.2816   4.2970   4.4825   4.4872   4.5285   4.6507   4.7464
     4.8294   4.9962   4.9968   5.1109   5.1522   5.3444   5.3657   5.3812

     occupation numbers 
     1.0000   1.0000   1.0000   1.0000   1.0000   1.0000   1.0000   1.0000
     1.0000   1.0000   1.0000   1.0000   1.0000   1.0000   1.0000   1.0000
     1.0000   1.0000   1.0000   1.0000   1.0000   1.0000   1.0000   1.0000
     1.0000   1.0000   1.0000   1.0000   1.0000   1.0000   1.0000   1.0000
     1.0000   1.0000   1.0000   1.0000   1.0000   1.0000   1.0000   1.0000
     1.0000   1.0000   1.0000   1.0000   1.0000   1.0000   1.0000   1.0000
     1.0000   1.0000   1.0000   1.0000   1.0000   1.0000   1.0000   1.0000
     1.0000   1.0000   1.0000   1.0000   1.0000   1.0000   1.0000   1.0000
     1.0000   1.0000   1.0000   1.0000   1.0000   1.0000   1.0000   1.0000
     1.0000   1.0000   1.0000   1.0000   1.0000   1.0000   1.0000   1.0000
     1.0000   0.0000   0.0000   0.0000   0.0000   0.0000   0.0000   0.0000
     0.0000   0.0000   0.0000   0.0000   0.0000   0.0000   0.0000   0.0000
     0.0000   0.0000   0.0000   0.0000   0.0000   0.0000   0.0000   0.0000
     0.0000   0.0000   0.0000   0.0000   0.0000   0.0000   0.0000   0.0000
     0.0000   0.0000   0.0000   0.0000   0.0000   0.0000   0.0000   0.0000

          k = 0.1583 0.0000 0.0000 (151559 PWs)   bands (ev):

   -20.1973 -20.1460 -20.0657 -19.9609 -19.8301 -19.6745 -19.4920 -19.2841
   -19.0505 -18.7917 -18.5067 -18.1975 -17.8648 -17.5082 -17.1302 -16.7327
   -16.3205 -15.9028 -15.5012 -15.1819 -13.8486 -13.4652 -12.9908 -12.4779
   -11.9427 -11.3955 -10.8431 -10.2945  -9.7587  -9.2509  -9.2014  -9.1476
    -9.0676  -8.9553  -8.8478  -8.7446  -8.6627  -8.4513  -8.3649  -8.2183
    -8.1729  -8.1597  -8.0679  -8.0540  -7.9471  -7.8109  -7.7960  -7.7519
    -7.6159  -7.4326  -7.4310  -7.4054  -7.1663  -7.0905  -7.0691  -6.8988
    -6.7344  -6.7292  -6.6040  -6.4217  -6.3744  -6.2823  -6.1528  -6.0330
    -5.9367  -5.9353  -5.8024  -5.7178  -5.5695  -5.4706  -5.2882  -5.1829
    -5.1780  -5.1249  -5.1224  -4.7831  -4.3773  -3.9785  -3.6061  -3.2909
    -3.0755   0.4458   0.7163   1.1034   1.5644   2.0717   2.6038   2.6065
     2.6519   2.6601   2.7703   2.7953   2.9548   3.0732   3.1402   3.2855
     3.4689   3.6543   3.7423   3.9632   4.0235   4.1128   4.1878   4.2213
     4.2985   4.3173   4.3494   4.5266   4.5363   4.5451   4.6951   4.8061
     4.8699   5.0572   5.0582   5.0817   5.2127   5.3607   5.4183   5.4427

     occupation numbers 
     1.0000   1.0000   1.0000   1.0000   1.0000   1.0000   1.0000   1.0000
     1.0000   1.0000   1.0000   1.0000   1.0000   1.0000   1.0000   1.0000
     1.0000   1.0000   1.0000   1.0000   1.0000   1.0000   1.0000   1.0000
     1.0000   1.0000   1.0000   1.0000   1.0000   1.0000   1.0000   1.0000
     1.0000   1.0000   1.0000   1.0000   1.0000   1.0000   1.0000   1.0000
     1.0000   1.0000   1.0000   1.0000   1.0000   1.0000   1.0000   1.0000
     1.0000   1.0000   1.0000   1.0000   1.0000   1.0000   1.0000   1.0000
     1.0000   1.0000   1.0000   1.0000   1.0000   1.0000   1.0000   1.0000
     1.0000   1.0000   1.0000   1.0000   1.0000   1.0000   1.0000   1.0000
     1.0000   1.0000   1.0000   1.0000   1.0000   1.0000   1.0000   1.0000
     1.0000   0.0000   0.0000   0.0000   0.0000   0.0000   0.0000   0.0000
     0.0000   0.0000   0.0000   0.0000   0.0000   0.0000   0.0000   0.0000
     0.0000   0.0000   0.0000   0.0000   0.0000   0.0000   0.0000   0.0000
     0.0000   0.0000   0.0000   0.0000   0.0000   0.0000   0.0000   0.0000
     0.0000   0.0000   0.0000   0.0000   0.0000   0.0000   0.0000   0.0000

          k = 0.1667 0.0000 0.0000 (151551 PWs)   bands (ev):

   -20.1492 -20.0979 -20.0176 -19.9130 -19.7822 -19.6267 -19.4443 -19.2366
   -19.0032 -18.7446 -18.4598 -18.1510 -17.8186 -17.4624 -17.0849 -16.6880
   -16.2765 -15.8595 -15.4589 -15.1403 -13.8119 -13.4298 -12.9577 -12.4481
   -11.9172 -11.3759 -10.8316 -10.2943  -9.7745  -9.3491  -9.3070  -9.2786
    -9.2125  -9.0953  -8.9773  -8.8220  -8.7960  -8.5727  -8.4691  -8.2720
    -8.1670  -8.1613  -8.1028  -8.0111  -7.9083  -7.8905  -7.8572  -7.7396
    -7.5597  -7.5398  -7.5235  -7.3495  -7.1879  -7.1669  -7.1107  -6.8575
    -6.8436  -6.7944  -6.5552  -6.5492  -6.4244  -6.2868  -6.2280  -6.1017
    -6.0468  -5.9404  -5.8829  -5.7624  -5.5215  -5.5160  -5.3498  -5.2541
    -5.2080  -5.2021  -5.1298  -4.7301  -4.3243  -3.9249  -3.5515  -3.2347
    -3.0179   0.4168   0.6876   1.0740   1.5331   2.0373   2.5659   2.6713
     2.7127   2.7250   2.8307   2.8595   3.0169   3.1004   3.1380   3.3489
     3.5342   3.6196   3.8064   4.0289   4.0299   4.1691   4.2513   4.2690
     4.3598   4.3627   4.3983   4.5299   4.5880   4.6111   4.7517   4.8690
     4.8925   5.0711   5.1212   5.1229   5.2764   5.3446   5.4771   5.5075

     occupation numbers 
     1.0000   1.0000   1.0000   1.0000   1.0000   1.0000   1.0000   1.0000
     1.0000   1.0000   1.0000   1.0000   1.0000   1.0000   1.0000   1.0000
     1.0000   1.0000   1.0000   1.0000   1.0000   1.0000   1.0000   1.0000
     1.0000   1.0000   1.0000   1.0000   1.0000   1.0000   1.0000   1.0000
     1.0000   1.0000   1.0000   1.0000   1.0000   1.0000   1.0000   1.0000
     1.0000   1.0000   1.0000   1.0000   1.0000   1.0000   1.0000   1.0000
     1.0000   1.0000   1.0000   1.0000   1.0000   1.0000   1.0000   1.0000
     1.0000   1.0000   1.0000   1.0000   1.0000   1.0000   1.0000   1.0000
     1.0000   1.0000   1.0000   1.0000   1.0000   1.0000   1.0000   1.0000
     1.0000   1.0000   1.0000   1.0000   1.0000   1.0000   1.0000   1.0000
     1.0000   0.0000   0.0000   0.0000   0.0000   0.0000   0.0000   0.0000
     0.0000   0.0000   0.0000   0.0000   0.0000   0.0000   0.0000   0.0000
     0.0000   0.0000   0.0000   0.0000   0.0000   0.0000   0.0000   0.0000
     0.0000   0.0000   0.0000   0.0000   0.0000   0.0000   0.0000   0.0000
     0.0000   0.0000   0.0000   0.0000   0.0000   0.0000   0.0000   0.0000

          k = 0.1750 0.0000 0.0000 (151563 PWs)   bands (ev):

   -20.0986 -20.0474 -19.9672 -19.8626 -19.7319 -19.5765 -19.3942 -19.1867
   -18.9534 -18.6951 -18.4106 -18.1020 -17.7700 -17.4143 -17.0373 -16.6411
   -16.2303 -15.8141 -15.4144 -15.0967 -13.7738 -13.3934 -12.9238 -12.4179
   -11.8920 -11.3576 -10.8229 -10.2992  -9.7987  -9.4990  -9.4471  -9.3593
    -9.3447  -9.2317  -9.1143  -8.9288  -8.9077  -8.6901  -8.5803  -8.3726
    -8.2782  -8.1016  -8.0431  -8.0136  -7.9569  -7.9515  -7.8311  -7.6804
    -7.6563  -7.6073  -7.5007  -7.3147  -7.2908  -7.2330  -7.0524  -6.9908
    -6.8479  -6.7857  -6.6896  -6.4918  -6.4854  -6.4070  -6.2305  -6.1710
    -6.0986  -6.0821  -5.8264  -5.8060  -5.5741  -5.4600  -5.4146  -5.3370
    -5.2906  -5.2842  -5.0741  -4.6748  -4.2688  -3.8689  -3.4944  -3.1759
    -2.9573   0.3848   0.6559   1.0416   1.4985   1.9993   2.5237   2.7390
     2.7767   2.7929   2.8939   2.9270   3.0552   3.0823   3.2061   3.4157
     3.5764   3.6028   3.8737   4.0210   4.0979   4.2281   4.3091   4.3179
     4.4103   4.4301   4.4382   4.5543   4.6394   4.6804   4.8146   4.8887
     4.9349   5.0947   5.1872   5.1908   5.2982   5.3433   5.5404   5.5756

     occupation numbers 
     1.0000   1.0000   1.0000   1.0000   1.0000   1.0000   1.0000   1.0000
     1.0000   1.0000   1.0000   1.0000   1.0000   1.0000   1.0000   1.0000
     1.0000   1.0000   1.0000   1.0000   1.0000   1.0000   1.0000   1.0000
     1.0000   1.0000   1.0000   1.0000   1.0000   1.0000   1.0000   1.0000
     1.0000   1.0000   1.0000   1.0000   1.0000   1.0000   1.0000   1.0000
     1.0000   1.0000   1.0000   1.0000   1.0000   1.0000   1.0000   1.0000
     1.0000   1.0000   1.0000   1.0000   1.0000   1.0000   1.0000   1.0000
     1.0000   1.0000   1.0000   1.0000   1.0000   1.0000   1.0000   1.0000
     1.0000   1.0000   1.0000   1.0000   1.0000   1.0000   1.0000   1.0000
     1.0000   1.0000   1.0000   1.0000   1.0000   1.0000   1.0000   1.0000
     1.0000   0.0000   0.0000   0.0000   0.0000   0.0000   0.0000   0.0000
     0.0000   0.0000   0.0000   0.0000   0.0000   0.0000   0.0000   0.0000
     0.0000   0.0000   0.0000   0.0000   0.0000   0.0000   0.0000   0.0000
     0.0000   0.0000   0.0000   0.0000   0.0000   0.0000   0.0000   0.0000
     0.0000   0.0000   0.0000   0.0000   0.0000   0.0000   0.0000   0.0000

          k = 0.1833 0.0000 0.0000 (151539 PWs)   bands (ev):

   -20.0457 -19.9945 -19.9143 -19.8097 -19.6792 -19.5239 -19.3417 -19.1343
   -18.9013 -18.6432 -18.3590 -18.0508 -17.7192 -17.3639 -16.9875 -16.5919
   -16.1819 -15.7666 -15.3678 -15.0509 -13.7348 -13.3560 -12.8893 -12.3875
   -11.8675 -11.3412 -10.8181 -10.3107  -9.8335  -9.6507  -9.5969  -9.5070
    -9.4339  -9.3510  -9.2529  -9.0595  -9.0051  -8.8038  -8.6937  -8.4777
    -8.3851  -8.1271  -8.0489  -8.0390  -7.9806  -7.8892  -7.7806  -7.7688
    -7.6811  -7.6184  -7.4464  -7.4390  -7.2924  -7.2295  -7.1239  -6.9915
    -6.9112  -6.8093  -6.7252  -6.6006  -6.4714  -6.4318  -6.3733  -6.2265
    -6.1372  -6.1115  -5.8499  -5.7674  -5.6286  -5.4829  -5.4268  -5.4015
    -5.3722  -5.3683  -5.0161  -4.6170  -4.2110  -3.8105  -3.4348  -3.1144
    -2.8939   0.3494   0.6209   1.0058   1.4604   1.9574   2.4772   2.8095
     2.8439   2.8640   2.9599   2.9979   3.0044   3.1510   3.2775   3.4858
     3.5250   3.6747   3.9443   3.9940   4.1702   4.2899   4.3361   4.3869
     4.4685   4.4711   4.5008   4.6017   4.6850   4.7531   4.8786   4.8812
     5.0040   5.1434   5.2229   5.2620   5.2665   5.4134   5.6072   5.6471

     occupation numbers 
     1.0000   1.0000   1.0000   1.0000   1.0000   1.0000   1.0000   1.0000
     1.0000   1.0000   1.0000   1.0000   1.0000   1.0000   1.0000   1.0000
     1.0000   1.0000   1.0000   1.0000   1.0000   1.0000   1.0000   1.0000
     1.0000   1.0000   1.0000   1.0000   1.0000   1.0000   1.0000   1.0000
     1.0000   1.0000   1.0000   1.0000   1.0000   1.0000   1.0000   1.0000
     1.0000   1.0000   1.0000   1.0000   1.0000   1.0000   1.0000   1.0000
     1.0000   1.0000   1.0000   1.0000   1.0000   1.0000   1.0000   1.0000
     1.0000   1.0000   1.0000   1.0000   1.0000   1.0000   1.0000   1.0000
     1.0000   1.0000   1.0000   1.0000   1.0000   1.0000   1.0000   1.0000
     1.0000   1.0000   1.0000   1.0000   1.0000   1.0000   1.0000   1.0000
     1.0000   0.0000   0.0000   0.0000   0.0000   0.0000   0.0000   0.0000
     0.0000   0.0000   0.0000   0.0000   0.0000   0.0000   0.0000   0.0000
     0.0000   0.0000   0.0000   0.0000   0.0000   0.0000   0.0000   0.0000
     0.0000   0.0000   0.0000   0.0000   0.0000   0.0000   0.0000   0.0000
     0.0000   0.0000   0.0000   0.0000   0.0000   0.0000   0.0000   0.0000

          k = 0.1917 0.0000 0.0000 (151461 PWs)   bands (ev):

   -19.9903 -19.9391 -19.8589 -19.7545 -19.6240 -19.4688 -19.2868 -19.0796
   -18.8468 -18.5889 -18.3050 -17.9972 -17.6660 -17.3113 -16.9354 -16.5405
   -16.1313 -15.7170 -15.3191 -15.0031 -13.6948 -13.3179 -12.8546 -12.3576
   -11.8444 -11.3278 -10.8186 -10.3309  -9.8816  -9.8031  -9.7481  -9.6545
    -9.5593  -9.4478  -9.3912  -9.1871  -9.1116  -8.9159  -8.8058  -8.5889
    -8.4857  -8.2478  -8.1320  -7.9736  -7.9153  -7.9093  -7.8240  -7.7488
    -7.7038  -7.5767  -7.5536  -7.3746  -7.3622  -7.2401  -7.1654  -7.0222
    -6.9278  -6.8779  -6.7428  -6.6620  -6.5200  -6.5083  -6.3730  -6.3692
    -6.1734  -6.0495  -5.8944  -5.7059  -5.6854  -5.5553  -5.5221  -5.4539
    -5.4534  -5.3406  -4.9557  -4.5568  -4.1508  -3.7498  -3.3727  -3.0503
    -2.8277   0.3105   0.5825   0.9666   1.4186   1.9115   2.4260   2.8824
     2.9147   2.9380   2.9482   3.0287   3.0721   3.2231   3.3522   3.4659
     3.5591   3.7499   3.9493   4.0182   4.2458   4.3424   4.3546   4.4563
     4.5071   4.5324   4.5746   4.6629   4.7185   4.8291   4.8900   4.9489
     5.0762   5.1555   5.2033   5.3332   5.3365   5.4866   5.6513   5.6773

     occupation numbers 
     1.0000   1.0000   1.0000   1.0000   1.0000   1.0000   1.0000   1.0000
     1.0000   1.0000   1.0000   1.0000   1.0000   1.0000   1.0000   1.0000
     1.0000   1.0000   1.0000   1.0000   1.0000   1.0000   1.0000   1.0000
     1.0000   1.0000   1.0000   1.0000   1.0000   1.0000   1.0000   1.0000
     1.0000   1.0000   1.0000   1.0000   1.0000   1.0000   1.0000   1.0000
     1.0000   1.0000   1.0000   1.0000   1.0000   1.0000   1.0000   1.0000
     1.0000   1.0000   1.0000   1.0000   1.0000   1.0000   1.0000   1.0000
     1.0000   1.0000   1.0000   1.0000   1.0000   1.0000   1.0000   1.0000
     1.0000   1.0000   1.0000   1.0000   1.0000   1.0000   1.0000   1.0000
     1.0000   1.0000   1.0000   1.0000   1.0000   1.0000   1.0000   1.0000
     1.0000   0.0000   0.0000   0.0000   0.0000   0.0000   0.0000   0.0000
     0.0000   0.0000   0.0000   0.0000   0.0000   0.0000   0.0000   0.0000
     0.0000   0.0000   0.0000   0.0000   0.0000   0.0000   0.0000   0.0000
     0.0000   0.0000   0.0000   0.0000   0.0000   0.0000   0.0000   0.0000
     0.0000   0.0000   0.0000   0.0000   0.0000   0.0000   0.0000   0.0000

          k = 0.2000 0.0000 0.0000 (151457 PWs)   bands (ev):

   -19.9324 -19.8813 -19.8012 -19.6968 -19.5665 -19.4114 -19.2295 -19.0225
   -18.7899 -18.5323 -18.2487 -17.9413 -17.6105 -17.2563 -16.8811 -16.4870
   -16.0786 -15.6652 -15.2683 -14.9531 -13.6542 -13.2794 -12.8199 -12.3285
   -11.8234 -11.3186 -10.8262 -10.3619  -9.9619  -9.9396  -9.8998  -9.7999
    -9.6977  -9.5440  -9.5275  -9.3112  -9.2231  -9.0289  -8.9141  -8.7057
    -8.5791  -8.3723  -8.2100  -8.0356  -7.9054  -7.8472  -7.8274  -7.7560
    -7.6879  -7.6361  -7.4861  -7.4742  -7.3086  -7.3074  -7.1636  -7.0986
    -6.9138  -6.8912  -6.8615  -6.6688  -6.5963  -6.5428  -6.5172  -6.3040
    -6.2088  -5.9849  -5.9401  -5.7445  -5.6420  -5.6326  -5.6217  -5.5393
    -5.5359  -5.2773  -4.8929  -4.4944  -4.0884  -3.6868  -3.3083  -2.9836
    -2.7587   0.2679   0.5405   0.9239   1.3731   1.8615   2.3702   2.8864
     2.9574   2.9895   3.0149   3.1005   3.1498   3.2987   3.3995   3.4303
     3.6358   3.8285   3.8891   4.0953   4.3207   4.3246   4.4222   4.5154
     4.5575   4.6001   4.6517   4.7301   4.7459   4.9085   4.9301   5.0032
     5.0988   5.1514   5.2664   5.4059   5.4143   5.5508   5.5630   5.7480

     occupation numbers 
     1.0000   1.0000   1.0000   1.0000   1.0000   1.0000   1.0000   1.0000
[...]
     1.0000   1.0000   1.0000   1.0000   1.0000   1.0000   1.0000   1.0000
     1.0000   1.0000   1.0000   1.0000   1.0000   1.0000   1.0000   1.0000
     1.0000   1.0000   1.0000   1.0000   1.0000   1.0000   1.0000   1.0000
     1.0000   1.0000   1.0000   1.0000   1.0000   1.0000   1.0000   1.0000
     1.0000   1.0000   1.0000   1.0000   1.0000   1.0000   1.0000   1.0000
     1.0000   1.0000   1.0000   1.0000   1.0000   1.0000   1.0000   1.0000
     1.0000   1.0000   1.0000   1.0000   1.0000   1.0000   1.0000   1.0000
     1.0000   1.0000   1.0000   1.0000   1.0000   1.0000   1.0000   1.0000
     1.0000   1.0000   1.0000   1.0000   1.0000   1.0000   1.0000   1.0000
     0.5556   0.5527   0.0000   0.0000   0.0000   0.0000   0.0000   0.0000
     0.0000   0.0000   0.0000   0.0000   0.0000   0.0000   0.0000   0.0000
     0.0000   0.0000   0.0000   0.0000   0.0000   0.0000   0.0000   0.0000
     0.0000   0.0000   0.0000   0.0000   0.0000   0.0000   0.0000   0.0000
     0.0000   0.0000   0.0000   0.0000   0.0000   0.0000   0.0000   0.0000

          k = 0.4500 0.0000 0.0000 (150996 PWs)   bands (ev):

   -17.1212 -17.0723 -16.9958 -16.8967 -16.7737 -16.6285 -16.4596 -16.2702
   -16.0618 -15.8392 -15.6101 -15.4984 -15.4568 -15.3975 -15.3946 -15.3218
   -15.2495 -15.2462 -15.2059 -14.4019 -14.3895 -14.1639 -14.1346 -13.9425
   -13.9292 -13.6856 -13.6466 -13.4153 -13.3192 -13.1226 -12.9879 -12.8106
   -12.6862 -12.4847 -12.4685 -12.1488 -11.8103 -11.4844 -11.1978 -10.9961
   -10.6711 -10.4064 -10.0604  -9.6809  -9.3029  -9.2882  -9.0747  -8.9080
    -8.7883  -8.5466  -8.4888  -8.2207  -8.2016  -7.9471  -7.9445  -7.7425
    -7.7324  -7.6056  -7.5995  -7.3859  -7.3853  -4.6992  -4.6546  -4.5862
    -4.4988  -4.3927  -4.2706  -4.1339  -3.9865  -3.8328  -3.6780  -3.5271
    -3.3879  -3.2668  -3.1682  -3.0941  -3.0444  -3.0140  -2.9940  -2.9923
    -1.1670  -1.1664   0.4765   0.4789   0.5315   0.5373   0.6087   0.6142
     0.6717   0.6958   0.7453   0.8980   1.0882   1.3043   1.5370   1.7757
     2.0093   2.2253   2.4113   2.5550   2.6448   5.7998   5.8086   6.3272
     6.3428   6.4825   6.5269   6.7286   6.8016   6.8933   6.9514   7.0444
     7.0520   7.1207   7.1731   7.3065   7.4540   7.4645   7.6234   7.7326

     occupation numbers 
     1.0000   1.0000   1.0000   1.0000   1.0000   1.0000   1.0000   1.0000
     1.0000   1.0000   1.0000   1.0000   1.0000   1.0000   1.0000   1.0000
     1.0000   1.0000   1.0000   1.0000   1.0000   1.0000   1.0000   1.0000
     1.0000   1.0000   1.0000   1.0000   1.0000   1.0000   1.0000   1.0000
     1.0000   1.0000   1.0000   1.0000   1.0000   1.0000   1.0000   1.0000
     1.0000   1.0000   1.0000   1.0000   1.0000   1.0000   1.0000   1.0000
     1.0000   1.0000   1.0000   1.0000   1.0000   1.0000   1.0000   1.0000
     1.0000   1.0000   1.0000   1.0000   1.0000   1.0000   1.0000   1.0000
     1.0000   1.0000   1.0000   1.0000   1.0000   1.0000   1.0000   1.0000
     1.0000   1.0000   1.0000   1.0000   1.0000   1.0000   1.0000   1.0000
     0.5861   0.5832   0.0000   0.0000   0.0000   0.0000   0.0000   0.0000
     0.0000   0.0000   0.0000   0.0000   0.0000   0.0000   0.0000   0.0000
     0.0000   0.0000   0.0000   0.0000   0.0000   0.0000   0.0000   0.0000
     0.0000   0.0000   0.0000   0.0000   0.0000   0.0000   0.0000   0.0000
     0.0000   0.0000   0.0000   0.0000   0.0000   0.0000   0.0000   0.0000

          k = 0.4583 0.0000 0.0000 (151038 PWs)   bands (ev):

   -16.9945 -16.9457 -16.8696 -16.7710 -16.6487 -16.5046 -16.3375 -16.1506
   -15.9467 -15.7323 -15.6401 -15.5969 -15.5316 -15.5200 -15.4517 -15.3638
   -15.3455 -15.2874 -15.2634 -14.4381 -14.4304 -14.2110 -14.1537 -14.0283
   -13.8930 -13.7888 -13.5932 -13.5069 -13.2836 -13.1900 -12.9638 -12.8637
   -12.6344 -12.5643 -12.3582 -12.2858 -11.9479 -11.6204 -11.3319 -11.1286
   -10.5673 -10.3048  -9.9623  -9.5879  -9.4228  -9.2047  -9.1927  -8.9000
    -8.8305  -8.5923  -8.4793  -8.2948  -8.1663  -8.0270  -7.9067  -7.8047
    -7.7167  -7.6435  -7.6081  -7.4065  -7.4042  -4.5614  -4.5184  -4.4528
    -4.3693  -4.2685  -4.1536  -4.0263  -3.8910  -3.7524  -3.6167  -3.4890
    -3.3768  -3.2855  -3.2180  -3.1743  -3.1533  -3.1465  -3.1154  -3.1149
    -1.1726  -1.1720   0.5092   0.5108   0.5729   0.5754   0.6616   0.6706
     0.7500   0.7869   0.8405   0.8488   0.9910   1.1863   1.4036   1.6305
     1.8549   2.0638   2.2443   2.3843   2.4718   5.8811   5.8874   6.3116
     6.3478   6.4465   6.5578   6.6655   6.8478   6.9771   7.0737   7.1357
     7.1763   7.2205   7.3420   7.3684   7.5076   7.5800   7.6898   7.8734

     occupation numbers 
     1.0000   1.0000   1.0000   1.0000   1.0000   1.0000   1.0000   1.0000
     1.0000   1.0000   1.0000   1.0000   1.0000   1.0000   1.0000   1.0000
     1.0000   1.0000   1.0000   1.0000   1.0000   1.0000   1.0000   1.0000
     1.0000   1.0000   1.0000   1.0000   1.0000   1.0000   1.0000   1.0000
     1.0000   1.0000   1.0000   1.0000   1.0000   1.0000   1.0000   1.0000
     1.0000   1.0000   1.0000   1.0000   1.0000   1.0000   1.0000   1.0000
     1.0000   1.0000   1.0000   1.0000   1.0000   1.0000   1.0000   1.0000
     1.0000   1.0000   1.0000   1.0000   1.0000   1.0000   1.0000   1.0000
     1.0000   1.0000   1.0000   1.0000   1.0000   1.0000   1.0000   1.0000
     1.0000   1.0000   1.0000   1.0000   1.0000   1.0000   1.0000   1.0000
     0.6132   0.6104   0.0000   0.0000   0.0000   0.0000   0.0000   0.0000
     0.0000   0.0000   0.0000   0.0000   0.0000   0.0000   0.0000   0.0000
     0.0000   0.0000   0.0000   0.0000   0.0000   0.0000   0.0000   0.0000
     0.0000   0.0000   0.0000   0.0000   0.0000   0.0000   0.0000   0.0000
     0.0000   0.0000   0.0000   0.0000   0.0000   0.0000   0.0000   0.0000

          k = 0.4667 0.0000 0.0000 (151040 PWs)   bands (ev):

   -16.8659 -16.8174 -16.7416 -16.6436 -16.5222 -16.3795 -16.2144 -16.0310
   -15.8331 -15.7812 -15.7367 -15.6687 -15.6307 -15.5841 -15.4865 -15.4445
   -15.3884 -15.3248 -15.3162 -14.4738 -14.4581 -14.2425 -14.1894 -14.0340
   -13.9600 -13.7513 -13.6949 -13.4300 -13.4045 -13.0923 -13.0920 -12.7641
   -12.7575 -12.4566 -12.4248 -12.2411 -12.0833 -11.7546 -11.4643 -11.2593
   -10.4612 -10.2010  -9.8625  -9.5440  -9.4937  -9.3096  -9.1179  -9.0104
    -8.7528  -8.6946  -8.4120  -8.3875  -8.1151  -8.1044  -7.8840  -7.8542
    -7.7171  -7.6701  -7.6211  -7.4229  -7.4202  -4.4225  -4.3813  -4.3187
    -4.2398  -4.1451  -4.0384  -3.9218  -3.8003  -3.6791  -3.5648  -3.4626
    -3.3794  -3.3195  -3.2875  -3.2850  -3.2791  -3.2739  -3.2219  -3.2219
    -1.1775  -1.1769   0.5321   0.5331   0.5988   0.6057   0.6931   0.7169
     0.8017   0.8469   0.9213   0.9481   1.0030   1.0816   1.2782   1.4910
     1.7047   1.9054   2.0799   2.2155   2.3005   5.9543   5.9582   6.3014
     6.3496   6.4255   6.5865   6.6141   6.8723   6.9280   7.1912   7.2569
     7.3177   7.3278   7.4174   7.5085   7.6303   7.6765   7.7453   7.9531

     occupation numbers 
     1.0000   1.0000   1.0000   1.0000   1.0000   1.0000   1.0000   1.0000
     1.0000   1.0000   1.0000   1.0000   1.0000   1.0000   1.0000   1.0000
     1.0000   1.0000   1.0000   1.0000   1.0000   1.0000   1.0000   1.0000
     1.0000   1.0000   1.0000   1.0000   1.0000   1.0000   1.0000   1.0000
     1.0000   1.0000   1.0000   1.0000   1.0000   1.0000   1.0000   1.0000
     1.0000   1.0000   1.0000   1.0000   1.0000   1.0000   1.0000   1.0000
     1.0000   1.0000   1.0000   1.0000   1.0000   1.0000   1.0000   1.0000
     1.0000   1.0000   1.0000   1.0000   1.0000   1.0000   1.0000   1.0000
     1.0000   1.0000   1.0000   1.0000   1.0000   1.0000   1.0000   1.0000
     1.0000   1.0000   1.0000   1.0000   1.0000   1.0000   1.0000   1.0000
     0.6360   0.6333   0.0000   0.0000   0.0000   0.0000   0.0000   0.0000
     0.0000   0.0000   0.0000   0.0000   0.0000   0.0000   0.0000   0.0000
     0.0000   0.0000   0.0000   0.0000   0.0000   0.0000   0.0000   0.0000
     0.0000   0.0000   0.0000   0.0000   0.0000   0.0000   0.0000   0.0000
     0.0000   0.0000   0.0000   0.0000   0.0000   0.0000   0.0000   0.0000

          k = 0.4750 0.0000 0.0000 (151036 PWs)   bands (ev):

   -16.7356 -16.6873 -16.6120 -16.5147 -16.3944 -16.2533 -16.0909 -15.9213
   -15.9120 -15.8759 -15.8060 -15.7226 -15.7180 -15.6136 -15.5380 -15.5013
   -15.3972 -15.3916 -15.3422 -14.4941 -14.4888 -14.2599 -14.2213 -14.0603
   -13.9670 -13.8087 -13.6616 -13.5250 -13.3297 -13.2160 -12.9861 -12.8901
   -12.6473 -12.5534 -12.3425 -12.2151 -12.1255 -11.8868 -11.5950 -11.3884
   -10.3529 -10.0953  -9.7611  -9.6639  -9.4292  -9.3944  -9.1229  -9.0272
    -8.7989  -8.6717  -8.4809  -8.3437  -8.1887  -8.0577  -7.9396  -7.8278
    -7.7509  -7.6681  -7.6388  -7.4350  -7.4333  -4.2825  -4.2434  -4.1844
    -4.1105  -4.0229  -3.9257  -3.8214  -3.7156  -3.6141  -3.5238  -3.4497
    -3.4296  -3.4133  -3.3984  -3.3927  -3.3768  -3.3742  -3.3099  -3.3096
    -1.1814  -1.1808   0.5460   0.5502   0.6136   0.6301   0.7147   0.7478
     0.8401   0.8833   0.9869   1.0078   1.1029   1.1471   1.1739   1.3589
     1.5594   1.7506   1.9181   2.0489   2.1310   6.0166   6.0186   6.2997
     6.3346   6.4355   6.5374   6.6504   6.8082   6.9715   7.1373   7.3688
     7.4446   7.4990   7.5436   7.5966   7.7269   7.8283   7.8557   8.0127

     occupation numbers 
     1.0000   1.0000   1.0000   1.0000   1.0000   1.0000   1.0000   1.0000
     1.0000   1.0000   1.0000   1.0000   1.0000   1.0000   1.0000   1.0000
     1.0000   1.0000   1.0000   1.0000   1.0000   1.0000   1.0000   1.0000
     1.0000   1.0000   1.0000   1.0000   1.0000   1.0000   1.0000   1.0000
     1.0000   1.0000   1.0000   1.0000   1.0000   1.0000   1.0000   1.0000
     1.0000   1.0000   1.0000   1.0000   1.0000   1.0000   1.0000   1.0000
     1.0000   1.0000   1.0000   1.0000   1.0000   1.0000   1.0000   1.0000
     1.0000   1.0000   1.0000   1.0000   1.0000   1.0000   1.0000   1.0000
     1.0000   1.0000   1.0000   1.0000   1.0000   1.0000   1.0000   1.0000
     1.0000   1.0000   1.0000   1.0000   1.0000   1.0000   1.0000   1.0000
     0.6541   0.6514   0.0000   0.0000   0.0000   0.0000   0.0000   0.0000
     0.0000   0.0000   0.0000   0.0000   0.0000   0.0000   0.0000   0.0000
     0.0000   0.0000   0.0000   0.0000   0.0000   0.0000   0.0000   0.0000
     0.0000   0.0000   0.0000   0.0000   0.0000   0.0000   0.0000   0.0000
     0.0000   0.0000   0.0000   0.0000   0.0000   0.0000   0.0000   0.0000

          k = 0.4833 0.0000 0.0000 (151062 PWs)   bands (ev):

   -16.6036 -16.5556 -16.4808 -16.3844 -16.2654 -16.1263 -16.0604 -16.0143
   -15.9674 -15.9429 -15.8523 -15.7947 -15.7431 -15.6214 -15.6176 -15.4962
   -15.4605 -15.3953 -15.3717 -14.5181 -14.5000 -14.2907 -14.2181 -14.0947
   -13.9660 -13.8296 -13.6782 -13.5240 -13.3664 -13.1931 -13.0373 -12.8519
   -12.6962 -12.5173 -12.3520 -12.2183 -12.0236 -12.0009 -11.7237 -11.5157
   -10.2425  -9.9878  -9.7832  -9.6575  -9.5416  -9.2998  -9.2314  -8.9386
    -8.9004  -8.5922  -8.5733  -8.2757  -8.2696  -8.0053  -8.0045  -7.7967
    -7.7938  -7.6606  -7.6591  -7.4433  -7.4431  -4.1416  -4.1050  -4.0499
    -3.9820  -3.9025  -3.8161  -3.7260  -3.6382  -3.5723  -3.5590  -3.5502
    -3.5195  -3.4959  -3.4873  -3.4586  -3.4544  -3.4431  -3.3752  -3.3749
    -1.1843  -1.1838   0.5566   0.5596   0.6291   0.6390   0.7393   0.7560
     0.8799   0.8938   1.0342   1.0444   1.1608   1.2190   1.2668   1.3128
     1.4216   1.6004   1.7595   1.8847   1.9634   6.0638   6.0666   6.3097
     6.3107   6.4703   6.4798   6.7032   6.7340   7.0279   7.0639   7.4265
     7.4732   7.6335   7.6947   7.7810   7.8889   7.9235   7.9459   8.0377

     occupation numbers 
     1.0000   1.0000   1.0000   1.0000   1.0000   1.0000   1.0000   1.0000
     1.0000   1.0000   1.0000   1.0000   1.0000   1.0000   1.0000   1.0000
     1.0000   1.0000   1.0000   1.0000   1.0000   1.0000   1.0000   1.0000
     1.0000   1.0000   1.0000   1.0000   1.0000   1.0000   1.0000   1.0000
     1.0000   1.0000   1.0000   1.0000   1.0000   1.0000   1.0000   1.0000
     1.0000   1.0000   1.0000   1.0000   1.0000   1.0000   1.0000   1.0000
     1.0000   1.0000   1.0000   1.0000   1.0000   1.0000   1.0000   1.0000
     1.0000   1.0000   1.0000   1.0000   1.0000   1.0000   1.0000   1.0000
     1.0000   1.0000   1.0000   1.0000   1.0000   1.0000   1.0000   1.0000
     1.0000   1.0000   1.0000   1.0000   1.0000   1.0000   1.0000   1.0000
     0.6671   0.6645   0.0000   0.0000   0.0000   0.0000   0.0000   0.0000
     0.0000   0.0000   0.0000   0.0000   0.0000   0.0000   0.0000   0.0000
     0.0000   0.0000   0.0000   0.0000   0.0000   0.0000   0.0000   0.0000
     0.0000   0.0000   0.0000   0.0000   0.0000   0.0000   0.0000   0.0000
     0.0000   0.0000   0.0000   0.0000   0.0000   0.0000   0.0000   0.0000

          k = 0.4917 0.0000 0.0000 (151084 PWs)   bands (ev):

   -16.4700 -16.4224 -16.3482 -16.2528 -16.1983 -16.1516 -16.1354 -16.0791
   -15.9990 -15.9864 -15.8738 -15.8446 -15.7456 -15.6806 -15.6068 -15.5223
   -15.4754 -15.4072 -15.3900 -14.5215 -14.5196 -14.2767 -14.2637 -14.0583
   -14.0262 -13.7880 -13.7360 -13.4854 -13.4167 -13.1610 -13.0788 -12.8220
   -12.7342 -12.4784 -12.3984 -12.1454 -12.0994 -11.8867 -11.8502 -11.6411
   -10.1302  -9.9003  -9.8786  -9.6550  -9.5533  -9.3393  -9.2020  -9.0012
    -8.8486  -8.6653  -8.5120  -8.3505  -8.2079  -8.0722  -7.9525  -7.8449
    -7.7630  -7.6839  -7.6526  -7.4497  -7.4476  -4.0000  -3.9661  -3.9158
    -3.8546  -3.7846  -3.7151  -3.7107  -3.6884  -3.6499  -3.6371  -3.6061
    -3.5701  -3.5602  -3.5192  -3.5171  -3.4905  -3.4878  -3.4154  -3.4151
    -1.1861  -1.1855   0.5626   0.5649   0.6372   0.6449   0.7490   0.7662
     0.8862   0.9185   1.0362   1.0896   1.1850   1.2631   1.3223   1.4012
     1.4603   1.4729   1.6050   1.7231   1.7979   6.0926   6.0991   6.2902
     6.3346   6.4260   6.5175   6.6646   6.7545   6.9981   7.0765   7.4161
     7.4755   7.8247   7.8755   7.8859   7.9598   7.9860   8.1006   8.2162

     occupation numbers 
     1.0000   1.0000   1.0000   1.0000   1.0000   1.0000   1.0000   1.0000
     1.0000   1.0000   1.0000   1.0000   1.0000   1.0000   1.0000   1.0000
     1.0000   1.0000   1.0000   1.0000   1.0000   1.0000   1.0000   1.0000
     1.0000   1.0000   1.0000   1.0000   1.0000   1.0000   1.0000   1.0000
     1.0000   1.0000   1.0000   1.0000   1.0000   1.0000   1.0000   1.0000
     1.0000   1.0000   1.0000   1.0000   1.0000   1.0000   1.0000   1.0000
     1.0000   1.0000   1.0000   1.0000   1.0000   1.0000   1.0000   1.0000
     1.0000   1.0000   1.0000   1.0000   1.0000   1.0000   1.0000   1.0000
     1.0000   1.0000   1.0000   1.0000   1.0000   1.0000   1.0000   1.0000
     1.0000   1.0000   1.0000   1.0000   1.0000   1.0000   1.0000   1.0000
     0.6750   0.6724   0.0000   0.0000   0.0000   0.0000   0.0000   0.0000
     0.0000   0.0000   0.0000   0.0000   0.0000   0.0000   0.0000   0.0000
     0.0000   0.0000   0.0000   0.0000   0.0000   0.0000   0.0000   0.0000
     0.0000   0.0000   0.0000   0.0000   0.0000   0.0000   0.0000   0.0000
     0.0000   0.0000   0.0000   0.0000   0.0000   0.0000   0.0000   0.0000

          k = 0.5000 0.0000 0.0000 (151090 PWs)   bands (ev):

   -16.3351 -16.3347 -16.2880 -16.2873 -16.2146 -16.2138 -16.1206 -16.1195
   -16.0059 -16.0035 -15.8737 -15.8698 -15.7271 -15.7206 -15.5760 -15.5696
   -15.4461 -15.4408 -15.3879 -14.5331 -14.5140 -14.3065 -14.2269 -14.1159
   -13.9621 -13.8628 -13.6563 -13.5716 -13.3272 -13.2549 -12.9827 -12.9215
   -12.6337 -12.5818 -12.2936 -12.2526 -11.9896 -11.9623 -11.7698 -11.7600
   -10.0187 -10.0135  -9.7750  -9.7601  -9.4575  -9.4363  -9.1130  -9.0912
    -8.7657  -8.7489  -8.4344  -8.4284  -8.1451  -8.1346  -7.9132  -7.8831
    -7.7462  -7.6983  -7.6503  -7.4519  -7.4490  -3.8581  -3.8574  -3.8276
    -3.8267  -3.7827  -3.7818  -3.7293  -3.7288  -3.6704  -3.6696  -3.6109
    -3.6108  -3.5568  -3.5565  -3.5170  -3.5138  -3.4983  -3.4291  -3.4287
    -1.1867  -1.1861   0.5639   0.5673   0.6358   0.6516   0.7439   0.7792
     0.8793   0.9363   1.0319   1.1081   1.1897   1.2783   1.3406   1.4318
     1.4722   1.5538   1.5747   1.6315   1.6377   6.1020   6.1111   6.2820
     6.3632   6.3878   6.5531   6.6218   6.7803   6.9672   7.0976   7.3916
     7.4959   7.8551   7.9839   8.0206   8.0222   8.0794   8.0820   8.1659

     occupation numbers 
     1.0000   1.0000   1.0000   1.0000   1.0000   1.0000   1.0000   1.0000
     1.0000   1.0000   1.0000   1.0000   1.0000   1.0000   1.0000   1.0000
     1.0000   1.0000   1.0000   1.0000   1.0000   1.0000   1.0000   1.0000
     1.0000   1.0000   1.0000   1.0000   1.0000   1.0000   1.0000   1.0000
     1.0000   1.0000   1.0000   1.0000   1.0000   1.0000   1.0000   1.0000
     1.0000   1.0000   1.0000   1.0000   1.0000   1.0000   1.0000   1.0000
     1.0000   1.0000   1.0000   1.0000   1.0000   1.0000   1.0000   1.0000
     1.0000   1.0000   1.0000   1.0000   1.0000   1.0000   1.0000   1.0000
     1.0000   1.0000   1.0000   1.0000   1.0000   1.0000   1.0000   1.0000
     1.0000   1.0000   1.0000   1.0000   1.0000   1.0000   1.0000   1.0000
     0.6776   0.6751   0.0000   0.0000   0.0000   0.0000   0.0000   0.0000
     0.0000   0.0000   0.0000   0.0000   0.0000   0.0000   0.0000   0.0000
     0.0000   0.0000   0.0000   0.0000   0.0000   0.0000   0.0000   0.0000
     0.0000   0.0000   0.0000   0.0000   0.0000   0.0000   0.0000   0.0000
     0.0000   0.0000   0.0000   0.0000   0.0000   0.0000   0.0000   0.0000

     the Fermi energy is    -1.1496 ev

     Writing output data file ZGNR20.save/
 
     init_run     :     10.29s CPU      6.70s WALL (       1 calls)
     electrons    :   2525.24s CPU    673.09s WALL (       1 calls)

     Called by init_run:
     wfcinit      :      0.42s CPU      1.01s WALL (       1 calls)
     wfcinit:atom :      1.47s CPU      0.56s WALL (       2 calls)
     wfcinit:wfcr :    113.70s CPU     29.66s WALL (       2 calls)
     potinit      :      4.69s CPU      1.73s WALL (       1 calls)
     hinit0       :      3.44s CPU      2.12s WALL (       1 calls)

     Called by electrons:
     c_bands      :   2525.17s CPU    672.83s WALL (       1 calls)
     v_of_rho     :      3.62s CPU      1.00s WALL (       1 calls)
     v_h          :      0.25s CPU      0.08s WALL (       1 calls)
     v_xc         :      3.37s CPU      0.93s WALL (       1 calls)

     Called by c_bands:
     init_us_2    :      0.62s CPU      0.36s WALL (       2 calls)
     cegterg      :   2397.85s CPU    631.54s WALL (      12 calls)

     Called by sum_band:

     Called by *egterg:
     h_psi        :   1357.91s CPU    350.44s WALL (     254 calls)
     g_psi        :      3.84s CPU      0.97s WALL (     240 calls)
     cdiaghg      :    258.49s CPU     84.25s WALL (     242 calls)
     cegterg:over :    448.52s CPU    112.67s WALL (     240 calls)
     cegterg:upda :    256.98s CPU     65.02s WALL (     240 calls)
     cegterg:last :    116.13s CPU     29.93s WALL (      18 calls)

     Called by h_psi:
     h_psi:pot    :   1352.66s CPU    348.46s WALL (     254 calls)
     h_psi:calbec :     54.41s CPU     13.85s WALL (     254 calls)
     vloc_psi     :   1256.94s CPU    324.17s WALL (     254 calls)
     add_vuspsi   :     41.21s CPU     10.42s WALL (     254 calls)

     General routines
     calbec       :     54.37s CPU     13.84s WALL (     254 calls)
     fft          :      2.99s CPU      1.01s WALL (      11 calls)
     fftw         :   1113.43s CPU    287.64s WALL (   12264 calls)
     davcio       :      1.44s CPU      1.21s WALL (       4 calls)
 
     Parallel routines
     fft_scatt_xy :    240.51s CPU     60.75s WALL (   12275 calls)
     fft_scatt_yz :    203.87s CPU     58.04s WALL (   12275 calls)
 
     PWSCF        : 42m19.54s CPU    11m32.29s WALL

 
   This run was terminated on:  15:38:11  30Jan2019            

=------------------------------------------------------------------------------=
   JOB DONE.
=------------------------------------------------------------------------------=
