
     Program PWSCF v.6.3 starts on 30Jan2019 at 16:49:57 

     This program is part of the open-source Quantum ESPRESSO suite
     for quantum simulation of materials; please cite
         "P. Giannozzi et al., J. Phys.:Condens. Matter 21 395502 (2009);
         "P. Giannozzi et al., J. Phys.:Condens. Matter 29 465901 (2017);
          URL http://www.quantum-espresso.org", 
     in publications or presentations arising from this work. More details at
     http://www.quantum-espresso.org/quote

     Parallel version (MPI & OpenMP), running on    1088 processor cores
     Number of MPI processes:               272
     Threads/MPI process:                     4

     MPI processes distributed on     4 nodes
     K-points division:     npool     =       8
     R & G space division:  proc/nbgrp/npool/nimage =      34
     Waiting for input...
     Reading input from standard input

     Current dimensions of program PWSCF are:
     Max number of different atomic species (ntypx) = 10
     Max number of k-points (npk) =  40000
     Max angular momentum in pseudopotentials (lmaxx) =  3

     Atomic positions and unit cell read from directory:
     tmp/CNT_21_21.save/
 
     WARNING: atomic wfc #  2 for atom type 1 has zero norm
     WARNING: atomic wfc #  4 for atom type 1 has zero norm

     Subspace diagonalization in iterative solution of the eigenvalue problem:
     one sub-group per band group will be used
     scalapack distributed-memory algorithm (size of sub-group:  4*  4 procs)

 
     Parallelization info
     --------------------
     sticks:   dense  smooth     PW     G-vecs:    dense   smooth      PW
     Min         327     327     92               105509   105509   16012
     Max         328     328     93               105534   105534   16031
     Sum       11149   11149   3151              3587957  3587957  544767
 


     bravais-lattice index     =            0
     lattice parameter (alat)  =       4.6487  a.u.
     unit-cell volume          =   26561.4449 (a.u.)^3
     number of atoms/cell      =           84
     number of atomic types    =            1
     number of electrons       =       336.00
     number of Kohn-Sham states=          260
     kinetic-energy cutoff     =     100.0000  Ry
     charge density cutoff     =     400.0000  Ry
     Exchange-correlation      =  SLA  PW   PBX  PBC ( 1  4  3  4 0 0)

     celldm(1)=   4.648726  celldm(2)=   6.995535  celldm(3)=   6.995535
     celldm(4)=   0.000000  celldm(5)=   0.000000  celldm(6)=   0.000000

     crystal axes: (cart. coord. in units of alat)
               a(1) = (   1.000000   0.000000   0.000000 )  
               a(2) = (   0.000000  16.260163   0.000000 )  
               a(3) = (   0.000000   0.000000  16.260163 )  

     reciprocal axes: (cart. coord. in units 2 pi/alat)
               b(1) = (  1.000000  0.000000  0.000000 )  
               b(2) = (  0.000000  0.061500  0.000000 )  
               b(3) = (  0.000000  0.000000  0.061500 )  


     PseudoPot. # 1 for C  read from file:
     /marconi_scratch/userexternal/opulci00/D_Davide/PSEUDO/C_pbe-20082014.UPF
     MD5 check sum: 87145631e374dcf03ed53b62604ff615
     Pseudo is Norm-conserving, Zval =  4.0
     Generated by new atomic code, or converted to UPF format
     Using radial grid of 1073 points,  1 beta functions with: 
                l(1) =   0

     atomic species   valence    mass     pseudopotential
        C              4.00    12.01100     C ( 1.00)

     No symmetry found


                                    s                        frac. trans.

      isym =  1     identity                                     

 cryst.   s( 1) = (     1          0          0      )
                  (     0          1          0      )
                  (     0          0          1      )

 cart.    s( 1) = (  1.0000000  0.0000000  0.0000000 )
                  (  0.0000000  1.0000000  0.0000000 )
                  (  0.0000000  0.0000000  1.0000000 )


   Cartesian axes

     site n.     atom                  positions (alat units)
         1           C   tau(   1) = (   0.4999008   0.8626276  -5.7231602  )
         2           C   tau(   2) = (   0.0000000   1.7059858  -5.5306695  )
         3           C   tau(   3) = (   0.4999008   2.5112346  -5.2146325  )
         4           C   tau(   4) = (   0.0000000   3.2603870  -4.7821093  )
         5           C   tau(   5) = (   0.4999008   3.9367073  -4.2427614  )
         6           C   tau(   6) = (   0.0000000   4.5250886  -3.6086378  )
         7           C   tau(   7) = (   0.4999008   5.0123866  -2.8939028  )
         8           C   tau(   8) = (   0.0000000   5.3877163  -2.1145228  )
         9           C   tau(   9) = (   0.4999008   5.6426931  -1.2879077  )
        10           C   tau(  10) = (   0.0000000   5.7716215  -0.4325232  )
        11           C   tau(  11) = (   0.4999008   5.7716215   0.4325232  )
        12           C   tau(  12) = (   0.0000000   5.6426931   1.2879077  )
        13           C   tau(  13) = (   0.4999008   5.3877163   2.1145228  )
        14           C   tau(  14) = (   0.0000000   5.0123866   2.8939028  )
        15           C   tau(  15) = (   0.4999008   4.5250886   3.6086378  )
        16           C   tau(  16) = (   0.0000000   3.9367073   4.2427614  )
        17           C   tau(  17) = (   0.4999008   3.2603870   4.7821093  )
        18           C   tau(  18) = (   0.0000000   2.5112346   5.2146325  )
        19           C   tau(  19) = (   0.4999008   1.7059858   5.5306695  )
        20           C   tau(  20) = (   0.0000000   0.8626276   5.7231602  )
        21           C   tau(  21) = (   0.4999008   0.0000000   5.7878053  )
        22           C   tau(  22) = (   0.0000000  -0.8626276   5.7231602  )
        23           C   tau(  23) = (   0.4999008  -1.7059858   5.5306695  )
        24           C   tau(  24) = (   0.0000000  -2.5112346   5.2146325  )
        25           C   tau(  25) = (   0.4999008  -3.2603870   4.7821093  )
        26           C   tau(  26) = (   0.0000000  -3.9367073   4.2427614  )
        27           C   tau(  27) = (   0.4999008  -4.5250886   3.6086378  )
        28           C   tau(  28) = (   0.0000000  -5.0123866   2.8939028  )
        29           C   tau(  29) = (   0.4999008  -5.3877163   2.1145228  )
        30           C   tau(  30) = (   0.0000000  -5.6426931   1.2879077  )
        31           C   tau(  31) = (   0.4999008  -5.7716215   0.4325232  )
        32           C   tau(  32) = (   0.0000000  -5.7716215  -0.4325232  )
        33           C   tau(  33) = (   0.4999008  -5.6426931  -1.2879077  )
        34           C   tau(  34) = (   0.0000000  -5.3877163  -2.1145228  )
        35           C   tau(  35) = (   0.4999008  -5.0123866  -2.8939028  )
        36           C   tau(  36) = (   0.0000000  -4.5250886  -3.6086378  )
        37           C   tau(  37) = (   0.4999008  -3.9367073  -4.2427614  )
        38           C   tau(  38) = (   0.0000000  -3.2603870  -4.7821093  )
        39           C   tau(  39) = (   0.4999008  -2.5112346  -5.2146325  )
        40           C   tau(  40) = (   0.0000000  -1.7059858  -5.5306695  )
        41           C   tau(  41) = (   0.4999008  -0.8626276  -5.7231602  )
        42           C   tau(  42) = (   0.0000000   0.0000000  -5.7878053  )
        43           C   tau(  43) = (   0.4999008   1.4281837  -5.6088309  )
        44           C   tau(  44) = (   0.0000000   2.2481850  -5.3333248  )
        45           C   tau(  45) = (   0.4999008   3.0179654  -4.9386817  )
        46           C   tau(  46) = (   0.0000000   3.7203297  -4.4337163  )
        47           C   tau(  47) = (   0.4999008   4.3395878  -3.8297089  )
        48           C   tau(  48) = (   0.0000000   4.8619065  -3.1401520  )
        49           C   tau(  49) = (   0.4999008   5.2756183  -2.3804496  )
        50           C   tau(  50) = (   0.0000000   5.5714817  -1.5675720  )
        51           C   tau(  51) = (   0.4999008   5.7428874  -0.7196772  )
        52           C   tau(  52) = (   0.0000000   5.7860065   0.1442939  )
        53           C   tau(  53) = (   0.4999008   5.6998756   1.0050419  )
        54           C   tau(  54) = (   0.0000000   5.4864191   1.8433386  )
        55           C   tau(  55) = (   0.4999008   5.1504049   2.6404585  )
        56           C   tau(  56) = (   0.0000000   4.6993390   3.3785947  )
        57           C   tau(  57) = (   0.4999008   4.1432980   4.0412589  )
        58           C   tau(  58) = (   0.0000000   3.4947024   4.6136480  )
        59           C   tau(  59) = (   0.4999008   2.7680411   5.0829756  )
        60           C   tau(  60) = (   0.0000000   1.9795459   5.4387581  )
        61           C   tau(  61) = (   0.4999008   1.1468313   5.6730476  )
        62           C   tau(  62) = (   0.0000000   0.2884984   5.7806106  )
        63           C   tau(  63) = (   0.4999008  -0.5762793   5.7590443  )
        64           C   tau(  64) = (   0.0000000  -1.4281837   5.6088309  )
        65           C   tau(  65) = (   0.4999008  -2.2481850   5.3333248  )
        66           C   tau(  66) = (   0.0000000  -3.0179654   4.9386817  )
        67           C   tau(  67) = (   0.4999008  -3.7203297   4.4337163  )
        68           C   tau(  68) = (   0.0000000  -4.3395878   3.8297089  )
        69           C   tau(  69) = (   0.4999008  -4.8619065   3.1401520  )
        70           C   tau(  70) = (   0.0000000  -5.2756183   2.3804496  )
        71           C   tau(  71) = (   0.4999008  -5.5714817   1.5675720  )
        72           C   tau(  72) = (   0.0000000  -5.7428874   0.7196772  )
        73           C   tau(  73) = (   0.4999008  -5.7860065  -0.1442939  )
        74           C   tau(  74) = (   0.0000000  -5.6998756  -1.0050419  )
        75           C   tau(  75) = (   0.4999008  -5.4864191  -1.8433386  )
        76           C   tau(  76) = (   0.0000000  -5.1504049  -2.6404585  )
        77           C   tau(  77) = (   0.4999008  -4.6993390  -3.3785947  )
        78           C   tau(  78) = (   0.0000000  -4.1432980  -4.0412589  )
        79           C   tau(  79) = (   0.4999008  -3.4947024  -4.6136480  )
        80           C   tau(  80) = (   0.0000000  -2.7680411  -5.0829756  )
        81           C   tau(  81) = (   0.4999008  -1.9795459  -5.4387581  )
        82           C   tau(  82) = (   0.0000000  -1.1468313  -5.6730476  )
        83           C   tau(  83) = (   0.4999008  -0.2884984  -5.7806106  )
        84           C   tau(  84) = (   0.0000000   0.5762793  -5.7590443  )

   Crystallographic axes

     site n.     atom                  positions (cryst. coord.)
         1           C   tau(   1) = (  0.4999008  0.0530516 -0.3519744  )
         2           C   tau(   2) = (  0.0000000  0.1049181 -0.3401362  )
         3           C   tau(   3) = (  0.4999008  0.1544409 -0.3206999  )
         4           C   tau(   4) = (  0.0000000  0.2005138 -0.2940997  )
         5           C   tau(   5) = (  0.4999008  0.2421075 -0.2609298  )
         6           C   tau(   6) = (  0.0000000  0.2782929 -0.2219312  )
         7           C   tau(   7) = (  0.4999008  0.3082618 -0.1779750  )
         8           C   tau(   8) = (  0.0000000  0.3313445 -0.1300431  )
         9           C   tau(   9) = (  0.4999008  0.3470256 -0.0792063  )
        10           C   tau(  10) = (  0.0000000  0.3549547 -0.0266002  )
        11           C   tau(  11) = (  0.4999008  0.3549547  0.0266002  )
        12           C   tau(  12) = (  0.0000000  0.3470256  0.0792063  )
        13           C   tau(  13) = (  0.4999008  0.3313445  0.1300431  )
        14           C   tau(  14) = (  0.0000000  0.3082618  0.1779750  )
        15           C   tau(  15) = (  0.4999008  0.2782929  0.2219312  )
        16           C   tau(  16) = (  0.0000000  0.2421075  0.2609298  )
        17           C   tau(  17) = (  0.4999008  0.2005138  0.2940997  )
        18           C   tau(  18) = (  0.0000000  0.1544409  0.3206999  )
        19           C   tau(  19) = (  0.4999008  0.1049181  0.3401362  )
        20           C   tau(  20) = (  0.0000000  0.0530516  0.3519744  )
        21           C   tau(  21) = (  0.4999008  0.0000000  0.3559500  )
        22           C   tau(  22) = (  0.0000000 -0.0530516  0.3519744  )
        23           C   tau(  23) = (  0.4999008 -0.1049181  0.3401362  )
        24           C   tau(  24) = (  0.0000000 -0.1544409  0.3206999  )
        25           C   tau(  25) = (  0.4999008 -0.2005138  0.2940997  )
        26           C   tau(  26) = (  0.0000000 -0.2421075  0.2609298  )
        27           C   tau(  27) = (  0.4999008 -0.2782929  0.2219312  )
        28           C   tau(  28) = (  0.0000000 -0.3082618  0.1779750  )
        29           C   tau(  29) = (  0.4999008 -0.3313445  0.1300431  )
        30           C   tau(  30) = (  0.0000000 -0.3470256  0.0792063  )
        31           C   tau(  31) = (  0.4999008 -0.3549547  0.0266002  )
        32           C   tau(  32) = (  0.0000000 -0.3549547 -0.0266002  )
        33           C   tau(  33) = (  0.4999008 -0.3470256 -0.0792063  )
        34           C   tau(  34) = (  0.0000000 -0.3313445 -0.1300431  )
        35           C   tau(  35) = (  0.4999008 -0.3082618 -0.1779750  )
        36           C   tau(  36) = (  0.0000000 -0.2782929 -0.2219312  )
        37           C   tau(  37) = (  0.4999008 -0.2421075 -0.2609298  )
        38           C   tau(  38) = (  0.0000000 -0.2005138 -0.2940997  )
        39           C   tau(  39) = (  0.4999008 -0.1544409 -0.3206999  )
        40           C   tau(  40) = (  0.0000000 -0.1049181 -0.3401362  )
        41           C   tau(  41) = (  0.4999008 -0.0530516 -0.3519744  )
        42           C   tau(  42) = (  0.0000000  0.0000000 -0.3559500  )
        43           C   tau(  43) = (  0.4999008  0.0878333 -0.3449431  )
        44           C   tau(  44) = (  0.0000000  0.1382634 -0.3279995  )
        45           C   tau(  45) = (  0.4999008  0.1856049 -0.3037289  )
        46           C   tau(  46) = (  0.0000000  0.2288003 -0.2726736  )
        47           C   tau(  47) = (  0.4999008  0.2668847 -0.2355271  )
        48           C   tau(  48) = (  0.0000000  0.2990073 -0.1931193  )
        49           C   tau(  49) = (  0.4999008  0.3244505 -0.1463977  )
        50           C   tau(  50) = (  0.0000000  0.3426461 -0.0964057  )
        51           C   tau(  51) = (  0.4999008  0.3531876 -0.0442601  )
        52           C   tau(  52) = (  0.0000000  0.3558394  0.0088741  )
        53           C   tau(  53) = (  0.4999008  0.3505424  0.0618101  )
        54           C   tau(  54) = (  0.0000000  0.3374148  0.1133653  )
        55           C   tau(  55) = (  0.4999008  0.3167499  0.1623882  )
        56           C   tau(  56) = (  0.0000000  0.2890093  0.2077836  )
        57           C   tau(  57) = (  0.4999008  0.2548128  0.2485374  )
        58           C   tau(  58) = (  0.0000000  0.2149242  0.2837393  )
        59           C   tau(  59) = (  0.4999008  0.1702345  0.3126030  )
        60           C   tau(  60) = (  0.0000000  0.1217421  0.3344836  )
        61           C   tau(  61) = (  0.4999008  0.0705301  0.3488924  )
        62           C   tau(  62) = (  0.0000000  0.0177426  0.3555076  )
        63           C   tau(  63) = (  0.4999008 -0.0354412  0.3541812  )
        64           C   tau(  64) = (  0.0000000 -0.0878333  0.3449431  )
        65           C   tau(  65) = (  0.4999008 -0.1382634  0.3279995  )
        66           C   tau(  66) = (  0.0000000 -0.1856049  0.3037289  )
        67           C   tau(  67) = (  0.4999008 -0.2288003  0.2726736  )
        68           C   tau(  68) = (  0.0000000 -0.2668847  0.2355271  )
        69           C   tau(  69) = (  0.4999008 -0.2990073  0.1931193  )
        70           C   tau(  70) = (  0.0000000 -0.3244505  0.1463977  )
        71           C   tau(  71) = (  0.4999008 -0.3426461  0.0964057  )
        72           C   tau(  72) = (  0.0000000 -0.3531876  0.0442601  )
        73           C   tau(  73) = (  0.4999008 -0.3558394 -0.0088741  )
        74           C   tau(  74) = (  0.0000000 -0.3505424 -0.0618101  )
        75           C   tau(  75) = (  0.4999008 -0.3374148 -0.1133653  )
        76           C   tau(  76) = (  0.0000000 -0.3167499 -0.1623882  )
        77           C   tau(  77) = (  0.4999008 -0.2890093 -0.2077836  )
        78           C   tau(  78) = (  0.0000000 -0.2548128 -0.2485374  )
        79           C   tau(  79) = (  0.4999008 -0.2149242 -0.2837393  )
        80           C   tau(  80) = (  0.0000000 -0.1702345 -0.3126030  )
        81           C   tau(  81) = (  0.4999008 -0.1217421 -0.3344836  )
        82           C   tau(  82) = (  0.0000000 -0.0705301 -0.3488924  )
        83           C   tau(  83) = (  0.4999008 -0.0177426 -0.3555076  )
        84           C   tau(  84) = (  0.0000000  0.0354412 -0.3541812  )

     number of k points=    61  Fermi-Dirac smearing, width (Ry)=  0.0037
                       cart. coord. in units 2pi/alat
        k(    1) = (   0.0000000   0.0000000   0.0000000), wk =   0.0166667
        k(    2) = (   0.0083333   0.0000000   0.0000000), wk =   0.0333333
        k(    3) = (   0.0166667   0.0000000   0.0000000), wk =   0.0333333
        k(    4) = (   0.0250000   0.0000000   0.0000000), wk =   0.0333333
        k(    5) = (   0.0333333   0.0000000   0.0000000), wk =   0.0333333
        k(    6) = (   0.0416667   0.0000000   0.0000000), wk =   0.0333333
        k(    7) = (   0.0500000   0.0000000   0.0000000), wk =   0.0333333
        k(    8) = (   0.0583333   0.0000000   0.0000000), wk =   0.0333333
        k(    9) = (   0.0666667   0.0000000   0.0000000), wk =   0.0333333
        k(   10) = (   0.0750000   0.0000000   0.0000000), wk =   0.0333333
        k(   11) = (   0.0833333   0.0000000   0.0000000), wk =   0.0333333
        k(   12) = (   0.0916667   0.0000000   0.0000000), wk =   0.0333333
        k(   13) = (   0.1000000   0.0000000   0.0000000), wk =   0.0333333
        k(   14) = (   0.1083333   0.0000000   0.0000000), wk =   0.0333333
        k(   15) = (   0.1166667   0.0000000   0.0000000), wk =   0.0333333
        k(   16) = (   0.1250000   0.0000000   0.0000000), wk =   0.0333333
        k(   17) = (   0.1333333   0.0000000   0.0000000), wk =   0.0333333
        k(   18) = (   0.1416667   0.0000000   0.0000000), wk =   0.0333333
        k(   19) = (   0.1500000   0.0000000   0.0000000), wk =   0.0333333
        k(   20) = (   0.1583333   0.0000000   0.0000000), wk =   0.0333333
        k(   21) = (   0.1666667   0.0000000   0.0000000), wk =   0.0333333
        k(   22) = (   0.1750000   0.0000000   0.0000000), wk =   0.0333333
        k(   23) = (   0.1833333   0.0000000   0.0000000), wk =   0.0333333
        k(   24) = (   0.1916667   0.0000000   0.0000000), wk =   0.0333333
        k(   25) = (   0.2000000   0.0000000   0.0000000), wk =   0.0333333
        k(   26) = (   0.2083333   0.0000000   0.0000000), wk =   0.0333333
        k(   27) = (   0.2166667   0.0000000   0.0000000), wk =   0.0333333
        k(   28) = (   0.2250000   0.0000000   0.0000000), wk =   0.0333333
        k(   29) = (   0.2333333   0.0000000   0.0000000), wk =   0.0333333
        k(   30) = (   0.2416667   0.0000000   0.0000000), wk =   0.0333333
        k(   31) = (   0.2500000   0.0000000   0.0000000), wk =   0.0333333
        k(   32) = (   0.2583333   0.0000000   0.0000000), wk =   0.0333333
        k(   33) = (   0.2666667   0.0000000   0.0000000), wk =   0.0333333
        k(   34) = (   0.2750000   0.0000000   0.0000000), wk =   0.0333333
        k(   35) = (   0.2833333   0.0000000   0.0000000), wk =   0.0333333
        k(   36) = (   0.2916667   0.0000000   0.0000000), wk =   0.0333333
        k(   37) = (   0.3000000   0.0000000   0.0000000), wk =   0.0333333
        k(   38) = (   0.3083333   0.0000000   0.0000000), wk =   0.0333333
        k(   39) = (   0.3166667   0.0000000   0.0000000), wk =   0.0333333
        k(   40) = (   0.3250000   0.0000000   0.0000000), wk =   0.0333333
        k(   41) = (   0.3333333   0.0000000   0.0000000), wk =   0.0333333
        k(   42) = (   0.3416667   0.0000000   0.0000000), wk =   0.0333333
        k(   43) = (   0.3500000   0.0000000   0.0000000), wk =   0.0333333
        k(   44) = (   0.3583333   0.0000000   0.0000000), wk =   0.0333333
        k(   45) = (   0.3666667   0.0000000   0.0000000), wk =   0.0333333
        k(   46) = (   0.3750000   0.0000000   0.0000000), wk =   0.0333333
        k(   47) = (   0.3833333   0.0000000   0.0000000), wk =   0.0333333
        k(   48) = (   0.3916667   0.0000000   0.0000000), wk =   0.0333333
        k(   49) = (   0.4000000   0.0000000   0.0000000), wk =   0.0333333
        k(   50) = (   0.4083333   0.0000000   0.0000000), wk =   0.0333333
        k(   51) = (   0.4166667   0.0000000   0.0000000), wk =   0.0333333
        k(   52) = (   0.4250000   0.0000000   0.0000000), wk =   0.0333333
        k(   53) = (   0.4333333   0.0000000   0.0000000), wk =   0.0333333
        k(   54) = (   0.4416667   0.0000000   0.0000000), wk =   0.0333333
        k(   55) = (   0.4500000   0.0000000   0.0000000), wk =   0.0333333
        k(   56) = (   0.4583333   0.0000000   0.0000000), wk =   0.0333333
        k(   57) = (   0.4666667   0.0000000   0.0000000), wk =   0.0333333
        k(   58) = (   0.4750000   0.0000000   0.0000000), wk =   0.0333333
        k(   59) = (   0.4833333   0.0000000   0.0000000), wk =   0.0333333
        k(   60) = (   0.4916667   0.0000000   0.0000000), wk =   0.0333333
        k(   61) = (  0.5000000   0.0000000   0.0000000), wk =   0.0166667

                       cryst. coord.
        k(    1) = (   0.0000000   0.0000000   0.0000000), wk =   0.0166667
        k(    2) = (   0.0083333   0.0000000   0.0000000), wk =   0.0333333
        k(    3) = (   0.0166667   0.0000000   0.0000000), wk =   0.0333333
        k(    4) = (   0.0250000   0.0000000   0.0000000), wk =   0.0333333
        k(    5) = (   0.0333333   0.0000000   0.0000000), wk =   0.0333333
        k(    6) = (   0.0416667   0.0000000   0.0000000), wk =   0.0333333
        k(    7) = (   0.0500000   0.0000000   0.0000000), wk =   0.0333333
        k(    8) = (   0.0583333   0.0000000   0.0000000), wk =   0.0333333
        k(    9) = (   0.0666667   0.0000000   0.0000000), wk =   0.0333333
        k(   10) = (   0.0750000   0.0000000   0.0000000), wk =   0.0333333
        k(   11) = (   0.0833333   0.0000000   0.0000000), wk =   0.0333333
        k(   12) = (   0.0916667   0.0000000   0.0000000), wk =   0.0333333
        k(   13) = (   0.1000000   0.0000000   0.0000000), wk =   0.0333333
        k(   14) = (   0.1083333   0.0000000   0.0000000), wk =   0.0333333
        k(   15) = (   0.1166667   0.0000000   0.0000000), wk =   0.0333333
        k(   16) = (   0.1250000   0.0000000   0.0000000), wk =   0.0333333
        k(   17) = (   0.1333333   0.0000000   0.0000000), wk =   0.0333333
        k(   18) = (   0.1416667   0.0000000   0.0000000), wk =   0.0333333
        k(   19) = (   0.1500000   0.0000000   0.0000000), wk =   0.0333333
        k(   20) = (   0.1583333   0.0000000   0.0000000), wk =   0.0333333
        k(   21) = (   0.1666667   0.0000000   0.0000000), wk =   0.0333333
        k(   22) = (   0.1750000   0.0000000   0.0000000), wk =   0.0333333
        k(   23) = (   0.1833333   0.0000000   0.0000000), wk =   0.0333333
        k(   24) = (   0.1916667   0.0000000   0.0000000), wk =   0.0333333
        k(   25) = (   0.2000000   0.0000000   0.0000000), wk =   0.0333333
        k(   26) = (   0.2083333   0.0000000   0.0000000), wk =   0.0333333
        k(   27) = (   0.2166667   0.0000000   0.0000000), wk =   0.0333333
        k(   28) = (   0.2250000   0.0000000   0.0000000), wk =   0.0333333
        k(   29) = (   0.2333333   0.0000000   0.0000000), wk =   0.0333333
        k(   30) = (   0.2416667   0.0000000   0.0000000), wk =   0.0333333
        k(   31) = (   0.2500000   0.0000000   0.0000000), wk =   0.0333333
        k(   32) = (   0.2583333   0.0000000   0.0000000), wk =   0.0333333
        k(   33) = (   0.2666667   0.0000000   0.0000000), wk =   0.0333333
        k(   34) = (   0.2750000   0.0000000   0.0000000), wk =   0.0333333
        k(   35) = (   0.2833333   0.0000000   0.0000000), wk =   0.0333333
        k(   36) = (   0.2916667   0.0000000   0.0000000), wk =   0.0333333
        k(   37) = (   0.3000000   0.0000000   0.0000000), wk =   0.0333333
        k(   38) = (   0.3083333   0.0000000   0.0000000), wk =   0.0333333
        k(   39) = (   0.3166667   0.0000000   0.0000000), wk =   0.0333333
        k(   40) = (   0.3250000   0.0000000   0.0000000), wk =   0.0333333
        k(   41) = (   0.3333333   0.0000000   0.0000000), wk =   0.0333333
        k(   42) = (   0.3416667   0.0000000   0.0000000), wk =   0.0333333
        k(   43) = (   0.3500000   0.0000000   0.0000000), wk =   0.0333333
        k(   44) = (   0.3583333   0.0000000   0.0000000), wk =   0.0333333
        k(   45) = (   0.3666667   0.0000000   0.0000000), wk =   0.0333333
        k(   46) = (   0.3750000   0.0000000   0.0000000), wk =   0.0333333
        k(   47) = (   0.3833333   0.0000000   0.0000000), wk =   0.0333333
        k(   48) = (   0.3916667   0.0000000   0.0000000), wk =   0.0333333
        k(   49) = (   0.4000000   0.0000000   0.0000000), wk =   0.0333333
        k(   50) = (   0.4083333   0.0000000   0.0000000), wk =   0.0333333
        k(   51) = (   0.4166667   0.0000000   0.0000000), wk =   0.0333333
        k(   52) = (   0.4250000   0.0000000   0.0000000), wk =   0.0333333
        k(   53) = (   0.4333333   0.0000000   0.0000000), wk =   0.0333333
        k(   54) = (   0.4416667   0.0000000   0.0000000), wk =   0.0333333
        k(   55) = (   0.4500000   0.0000000   0.0000000), wk =   0.0333333
        k(   56) = (   0.4583333   0.0000000   0.0000000), wk =   0.0333333
        k(   57) = (   0.4666667   0.0000000   0.0000000), wk =   0.0333333
        k(   58) = (   0.4750000   0.0000000   0.0000000), wk =   0.0333333
        k(   59) = (   0.4833333   0.0000000   0.0000000), wk =   0.0333333
        k(   60) = (   0.4916667   0.0000000   0.0000000), wk =   0.0333333
        k(   61) = (  0.5000000   0.0000000   0.0000000), wk =   0.0166667

     Dense  grid:  3587957 G-vectors     FFT dimensions: (  30, 486, 486)

     Dynamical RAM for                 wfc:      52.34 MB

     Dynamical RAM for     wfc (w. buffer):      52.34 MB

     Dynamical RAM for           str. fact:       1.61 MB

     Dynamical RAM for           local pot:       0.00 MB

     Dynamical RAM for          nlocal pot:      16.91 MB

     Dynamical RAM for                qrad:       0.01 MB

     Dynamical RAM for          rho,v,vnew:       9.84 MB

     Dynamical RAM for           G-vectors:       6.84 MB

     Dynamical RAM for          h,s,v(r/c):       3.09 MB

     Dynamical RAM for          <psi|beta>:       0.33 MB

     Dynamical RAM for                 psi:     209.35 MB

     Dynamical RAM for                hpsi:     209.35 MB

     Dynamical RAM for      wfcinit/wfcrot:     137.86 MB

     Estimated static dynamical RAM per process >      99.11 MB

     Estimated max dynamical RAM per process >     521.23 MB

     Estimated total dynamical RAM >     138.45 GB

     The potential is recalculated from file :
     tmp/CNT_21_21.save/charge-density.dat

     Starting wfcs are  336 randomized atomic wfcs

     Band Structure Calculation
     Davidson diagonalization with overlap

     Computing kpt #:     1
     total cpu time spent up to now is      588.4 secs

     Computing kpt #:     2
     c_bands:  2 eigenvalues not converged
     total cpu time spent up to now is     1092.9 secs

     Computing kpt #:     3
     total cpu time spent up to now is     1585.4 secs

     Computing kpt #:     4
     total cpu time spent up to now is     2068.9 secs

     Computing kpt #:     5
     total cpu time spent up to now is     2561.9 secs

     Computing kpt #:     6
     c_bands:  2 eigenvalues not converged
     total cpu time spent up to now is     3069.8 secs

     Computing kpt #:     7
     c_bands:  1 eigenvalues not converged
     total cpu time spent up to now is     3586.8 secs

     Computing kpt #:     8
     c_bands:  2 eigenvalues not converged
     total cpu time spent up to now is     4090.3 secs

     ethr =  2.98E-10,  avg # of iterations = 77.9

     total cpu time spent up to now is     4090.5 secs

     End of band structure calculation

          k = 0.0000 0.0000 0.0000 (449355 PWs)   bands (ev):

   -21.6833 -21.6713 -21.6680 -21.6292 -21.6284 -21.5610 -21.5607 -21.4660
   -21.4658 -21.3440 -21.3438 -21.1951 -21.1950 -21.0196 -21.0196 -20.8176
   -20.8176 -20.5894 -20.5894 -20.3353 -20.3353 -20.0556 -20.0555 -19.7507
   -19.7506 -19.4211 -19.4211 -19.0676 -19.0676 -18.6910 -18.6909 -18.2925
   -18.2924 -17.8743 -17.8742 -17.4405 -17.4404 -17.0014 -17.0011 -16.5934
   -16.5911 -16.3763 -15.3742 -15.1399 -15.1376 -14.6714 -14.6711 -14.1351
   -14.1350 -13.5666 -13.5665 -12.9770 -12.9770 -12.3721 -12.3720 -11.7558
   -11.7558 -11.1321 -11.1320 -10.5052 -10.5052  -9.8809  -9.8809  -9.7847
    -9.7701  -9.7668  -9.7204  -9.7196  -9.6397  -9.6394  -9.5273  -9.5272
    -9.3838  -9.3836  -9.2703  -9.2703  -9.2101  -9.2100  -9.0087  -9.0087
    -8.7918  -8.7917  -8.7479  -8.7479  -8.5869  -8.5751  -8.5718  -8.5335
    -8.5326  -8.4665  -8.4661  -8.3735  -8.3733  -8.3605  -8.3604  -8.2552
    -8.2550  -8.1545  -8.1545  -8.1123  -8.1122  -7.9896  -7.9895  -7.9461
    -7.9460  -7.8437  -7.8437  -7.7580  -7.7580  -7.5501  -7.5501  -7.4987
    -7.4987  -7.4420  -7.4420  -7.3247  -7.3246  -7.1279  -7.1279  -7.0847
    -7.0846  -6.9159  -6.9157  -6.8338  -6.8338  -6.7360  -6.7360  -6.5766
    -6.5766  -6.4338  -6.4336  -6.3284  -6.3283  -6.3188  -6.3188  -6.0671
    -6.0670  -6.0107  -6.0105  -5.9126  -5.9124  -5.8294  -5.8293  -5.6612
    -5.6609  -5.6149  -5.6148  -5.5001  -5.5000  -5.4336  -5.4333  -5.3992
    -5.3984  -5.2952  -5.2945  -5.2376  -5.2343  -5.2094  -5.2060  -5.1806
    -5.1779  -5.1100  -5.1098  -4.7730  -4.7724  -4.5359  -4.5328  -4.4465
    -0.4233  -0.3167  -0.3136  -0.0164  -0.0157   0.4212   0.4214   0.9494
     0.9495   1.1158   1.1583   1.1606   1.1926   1.2185   1.3241   1.3244
     1.4338   1.4721   1.5353   1.5354   1.6226   1.6228   1.7817   1.8419
     1.8600   1.9499   1.9713   1.9719   2.0239   2.0241   2.0447   2.1567
     2.1568   2.1579   2.1590   2.1936   2.2122   2.2590   2.2848   2.3860
     2.3941   2.4834   2.4835   2.5019   2.5022   2.5646   2.5652   2.5842
     2.6286   2.6288   2.6929   2.7441   2.7958   2.7963   2.8434   2.8498
     2.8599   2.9315   3.0021   3.0025   3.0034   3.0775   3.0799   3.0801
     3.1181   3.1512   3.1526   3.2024   3.2770   3.3284   3.3286   3.3361
     3.3763   3.4154   3.4155   3.4625   3.4633   3.4863   3.4952   3.6089
     3.6092   3.6851   3.6854   3.7369   3.7486   3.7695   3.7701   3.8019
     3.8906   3.8956   3.9412   3.9422

     occupation numbers 
     1.0000   1.0000   1.0000   1.0000   1.0000   1.0000   1.0000   1.0000
     1.0000   1.0000   1.0000   1.0000   1.0000   1.0000   1.0000   1.0000
     1.0000   1.0000   1.0000   1.0000   1.0000   1.0000   1.0000   1.0000
     1.0000   1.0000   1.0000   1.0000   1.0000   1.0000   1.0000   1.0000
     1.0000   1.0000   1.0000   1.0000   1.0000   1.0000   1.0000   1.0000
     1.0000   1.0000   1.0000   1.0000   1.0000   1.0000   1.0000   1.0000
     1.0000   1.0000   1.0000   1.0000   1.0000   1.0000   1.0000   1.0000
     1.0000   1.0000   1.0000   1.0000   1.0000   1.0000   1.0000   1.0000
     1.0000   1.0000   1.0000   1.0000   1.0000   1.0000   1.0000   1.0000
     1.0000   1.0000   1.0000   1.0000   1.0000   1.0000   1.0000   1.0000
     1.0000   1.0000   1.0000   1.0000   1.0000   1.0000   1.0000   1.0000
     1.0000   1.0000   1.0000   1.0000   1.0000   1.0000   1.0000   1.0000
     1.0000   1.0000   1.0000   1.0000   1.0000   1.0000   1.0000   1.0000
     1.0000   1.0000   1.0000   1.0000   1.0000   1.0000   1.0000   1.0000
     1.0000   1.0000   1.0000   1.0000   1.0000   1.0000   1.0000   1.0000
     1.0000   1.0000   1.0000   1.0000   1.0000   1.0000   1.0000   1.0000
     1.0000   1.0000   1.0000   1.0000   1.0000   1.0000   1.0000   1.0000
     1.0000   1.0000   1.0000   1.0000   1.0000   1.0000   1.0000   1.0000
     1.0000   1.0000   1.0000   1.0000   1.0000   1.0000   1.0000   1.0000
     1.0000   1.0000   1.0000   1.0000   1.0000   1.0000   1.0000   1.0000
     1.0000   1.0000   1.0000   1.0000   1.0000   1.0000   1.0000   1.0000
     0.0000   0.0000   0.0000   0.0000   0.0000   0.0000   0.0000   0.0000
     0.0000   0.0000   0.0000   0.0000   0.0000   0.0000   0.0000   0.0000
     0.0000   0.0000   0.0000   0.0000   0.0000   0.0000   0.0000   0.0000
     0.0000   0.0000   0.0000   0.0000   0.0000   0.0000   0.0000   0.0000
     0.0000   0.0000   0.0000   0.0000   0.0000   0.0000   0.0000   0.0000
     0.0000   0.0000   0.0000   0.0000   0.0000   0.0000   0.0000   0.0000
     0.0000   0.0000   0.0000   0.0000   0.0000   0.0000   0.0000   0.0000
     0.0000   0.0000   0.0000   0.0000   0.0000   0.0000   0.0000   0.0000
     0.0000   0.0000   0.0000   0.0000   0.0000   0.0000   0.0000   0.0000
     0.0000   0.0000   0.0000   0.0000   0.0000   0.0000   0.0000   0.0000
     0.0000   0.0000   0.0000   0.0000   0.0000   0.0000   0.0000   0.0000
     0.0000   0.0000   0.0000   0.0000

          k = 0.0083 0.0000 0.0000 (449403 PWs)   bands (ev):

   -21.6821 -21.6701 -21.6668 -21.6280 -21.6271 -21.5598 -21.5595 -21.4647
   -21.4645 -21.3427 -21.3426 -21.1939 -21.1938 -21.0183 -21.0183 -20.8164
   -20.8163 -20.5882 -20.5882 -20.3340 -20.3340 -20.0543 -20.0543 -19.7495
   -19.7494 -19.4199 -19.4199 -19.0664 -19.0664 -18.6898 -18.6897 -18.2913
   -18.2913 -17.8732 -17.8731 -17.4394 -17.4393 -17.0003 -16.9999 -16.5923
   -16.5900 -16.3752 -15.3732 -15.1389 -15.1366 -14.6704 -14.6701 -14.1342
   -14.1341 -13.5657 -13.5657 -12.9762 -12.9762 -12.3714 -12.3713 -11.7552
   -11.7552 -11.1316 -11.1316 -10.5049 -10.5049  -9.8809  -9.8809  -9.7832
    -9.7686  -9.7654  -9.7189  -9.7181  -9.6382  -9.6379  -9.5259  -9.5257
    -9.3824  -9.3822  -9.2705  -9.2704  -9.2086  -9.2085  -9.0073  -9.0073
    -8.7904  -8.7904  -8.7478  -8.7478  -8.5925  -8.5806  -8.5773  -8.5391
    -8.5382  -8.4720  -8.4716  -8.3790  -8.3788  -8.3597  -8.3597  -8.2606
    -8.2605  -8.1531  -8.1531  -8.1177  -8.1176  -7.9904  -7.9903  -7.9515
    -7.9514  -7.8423  -7.8423  -7.7634  -7.7634  -7.5554  -7.5554  -7.4973
    -7.4973  -7.4434  -7.4434  -7.3298  -7.3298  -7.1265  -7.1265  -7.0897
    -7.0897  -6.9179  -6.9177  -6.8387  -6.8387  -6.7346  -6.7346  -6.5814
    -6.5813  -6.4364  -6.4362  -6.3270  -6.3269  -6.3233  -6.3233  -6.0713
    -6.0712  -6.0140  -6.0138  -5.9112  -5.9111  -5.8333  -5.8332  -5.6651
    -5.6649  -5.6185  -5.6184  -5.4987  -5.4986  -5.4368  -5.4366  -5.4037
    -5.4030  -5.2982  -5.2975  -5.2422  -5.2393  -5.2121  -5.2092  -5.1834
    -5.1830  -5.1086  -5.1084  -4.7716  -4.7710  -4.5344  -4.5313  -4.4450
    -0.4237  -0.3171  -0.3140  -0.0167  -0.0161   0.4208   0.4210   0.9489
     0.9491   1.1175   1.1600   1.1623   1.1942   1.2202   1.3258   1.3261
     1.4355   1.4738   1.5348   1.5349   1.6243   1.6245   1.7834   1.8435
     1.8617   1.9516   1.9730   1.9736   2.0256   2.0257   2.0464   2.1560
     2.1561   2.1596   2.1607   2.1953   2.2139   2.2607   2.2865   2.3876
     2.3958   2.4851   2.4852   2.5036   2.5039   2.5663   2.5669   2.5859
     2.6303   2.6305   2.6946   2.7458   2.7950   2.7954   2.8451   2.8515
     2.8616   2.9332   3.0038   3.0042   3.0051   3.0792   3.0816   3.0818
     3.1198   3.1529   3.1543   3.2041   3.2787   3.3301   3.3302   3.3378
     3.3780   3.4149   3.4150   3.4641   3.4650   3.4879   3.4969   3.6104
     3.6107   3.6867   3.6870   3.7386   3.7503   3.7710   3.7716   3.8036
     3.8923   3.8973   3.9429   3.9439

     occupation numbers 
     1.0000   1.0000   1.0000   1.0000   1.0000   1.0000   1.0000   1.0000
     1.0000   1.0000   1.0000   1.0000   1.0000   1.0000   1.0000   1.0000
     1.0000   1.0000   1.0000   1.0000   1.0000   1.0000   1.0000   1.0000
     1.0000   1.0000   1.0000   1.0000   1.0000   1.0000   1.0000   1.0000
     1.0000   1.0000   1.0000   1.0000   1.0000   1.0000   1.0000   1.0000
     1.0000   1.0000   1.0000   1.0000   1.0000   1.0000   1.0000   1.0000
     1.0000   1.0000   1.0000   1.0000   1.0000   1.0000   1.0000   1.0000
     1.0000   1.0000   1.0000   1.0000   1.0000   1.0000   1.0000   1.0000
     1.0000   1.0000   1.0000   1.0000   1.0000   1.0000   1.0000   1.0000
     1.0000   1.0000   1.0000   1.0000   1.0000   1.0000   1.0000   1.0000
     1.0000   1.0000   1.0000   1.0000   1.0000   1.0000   1.0000   1.0000
     1.0000   1.0000   1.0000   1.0000   1.0000   1.0000   1.0000   1.0000
     1.0000   1.0000   1.0000   1.0000   1.0000   1.0000   1.0000   1.0000
     1.0000   1.0000   1.0000   1.0000   1.0000   1.0000   1.0000   1.0000
     1.0000   1.0000   1.0000   1.0000   1.0000   1.0000   1.0000   1.0000
     1.0000   1.0000   1.0000   1.0000   1.0000   1.0000   1.0000   1.0000
     1.0000   1.0000   1.0000   1.0000   1.0000   1.0000   1.0000   1.0000
     1.0000   1.0000   1.0000   1.0000   1.0000   1.0000   1.0000   1.0000
     1.0000   1.0000   1.0000   1.0000   1.0000   1.0000   1.0000   1.0000
     1.0000   1.0000   1.0000   1.0000   1.0000   1.0000   1.0000   1.0000
     1.0000   1.0000   1.0000   1.0000   1.0000   1.0000   1.0000   1.0000
     0.0000   0.0000   0.0000   0.0000   0.0000   0.0000   0.0000   0.0000
     0.0000   0.0000   0.0000   0.0000   0.0000   0.0000   0.0000   0.0000
     0.0000   0.0000   0.0000   0.0000   0.0000   0.0000   0.0000   0.0000
     0.0000   0.0000   0.0000   0.0000   0.0000   0.0000   0.0000   0.0000
     0.0000   0.0000   0.0000   0.0000   0.0000   0.0000   0.0000   0.0000
     0.0000   0.0000   0.0000   0.0000   0.0000   0.0000   0.0000   0.0000
     0.0000   0.0000   0.0000   0.0000   0.0000   0.0000   0.0000   0.0000
     0.0000   0.0000   0.0000   0.0000   0.0000   0.0000   0.0000   0.0000
     0.0000   0.0000   0.0000   0.0000   0.0000   0.0000   0.0000   0.0000
     0.0000   0.0000   0.0000   0.0000   0.0000   0.0000   0.0000   0.0000
     0.0000   0.0000   0.0000   0.0000   0.0000   0.0000   0.0000   0.0000
     0.0000   0.0000   0.0000   0.0000

          k = 0.0167 0.0000 0.0000 (449391 PWs)   bands (ev):

   -21.6784 -21.6664 -21.6630 -21.6243 -21.6234 -21.5561 -21.5558 -21.4610
   -21.4608 -21.3390 -21.3389 -21.1902 -21.1901 -21.0146 -21.0146 -20.8127
   -20.8127 -20.5845 -20.5845 -20.3304 -20.3304 -20.0507 -20.0507 -19.7458
   -19.7458 -19.4163 -19.4163 -19.0629 -19.0628 -18.6863 -18.6862 -18.2878
   -18.2878 -17.8697 -17.8696 -17.4360 -17.4359 -16.9970 -16.9966 -16.5891
   -16.5867 -16.3721 -15.3700 -15.1358 -15.1335 -14.6675 -14.6671 -14.1314
   -14.1313 -13.5631 -13.5631 -12.9739 -12.9738 -12.3693 -12.3692 -11.7535
   -11.7535 -11.1303 -11.1303 -10.5041 -10.5041  -9.8807  -9.8807  -9.7788
    -9.7642  -9.7609  -9.7145  -9.7137  -9.6338  -9.6335  -9.5215  -9.5213
    -9.3780  -9.3778  -9.2710  -9.2710  -9.2043  -9.2042  -9.0030  -9.0030
    -8.7864  -8.7864  -8.7476  -8.7475  -8.6090  -8.5972  -8.5938  -8.5556
    -8.5547  -8.4885  -8.4881  -8.3954  -8.3953  -8.3573  -8.3573  -8.2770
    -8.2768  -8.1490  -8.1490  -8.1340  -8.1339  -7.9930  -7.9929  -7.9676
    -7.9676  -7.8381  -7.8381  -7.7794  -7.7794  -7.5712  -7.5712  -7.4931
    -7.4931  -7.4477  -7.4476  -7.3453  -7.3453  -7.1223  -7.1223  -7.1048
    -7.1048  -6.9239  -6.9237  -6.8533  -6.8533  -6.7305  -6.7304  -6.5954
    -6.5954  -6.4443  -6.4442  -6.3367  -6.3366  -6.3228  -6.3228  -6.0838
    -6.0837  -6.0240  -6.0238  -5.9070  -5.9069  -5.8449  -5.8447  -5.6771
    -5.6769  -5.6291  -5.6289  -5.4945  -5.4944  -5.4464  -5.4462  -5.4174
    -5.4167  -5.3071  -5.3064  -5.2562  -5.2545  -5.2201  -5.2184  -5.1983
    -5.1915  -5.1043  -5.1042  -4.7672  -4.7666  -4.5299  -4.5268  -4.4405
    -0.4247  -0.3181  -0.3150  -0.0178  -0.0171   0.4197   0.4199   0.9476
     0.9477   1.1226   1.1650   1.1673   1.1993   1.2252   1.3308   1.3311
     1.4405   1.4788   1.5331   1.5332   1.6294   1.6295   1.7885   1.8486
     1.8668   1.9567   1.9781   1.9787   2.0307   2.0308   2.0514   2.1539
     2.1539   2.1647   2.1657   2.2004   2.2190   2.2659   2.2915   2.3927
     2.4009   2.4902   2.4903   2.5087   2.5090   2.5715   2.5721   2.5910
     2.6355   2.6356   2.6997   2.7509   2.7924   2.7929   2.8503   2.8566
     2.8667   2.9383   3.0089   3.0093   3.0102   3.0844   3.0867   3.0869
     3.1249   3.1581   3.1594   3.2092   3.2838   3.3352   3.3353   3.3429
     3.3831   3.4135   3.4136   3.4691   3.4699   3.4930   3.5019   3.6149
     3.6153   3.6915   3.6918   3.7437   3.7553   3.7754   3.7760   3.8087
     3.8974   3.9022   3.9478   3.9489

     occupation numbers 
     1.0000   1.0000   1.0000   1.0000   1.0000   1.0000   1.0000   1.0000
     1.0000   1.0000   1.0000   1.0000   1.0000   1.0000   1.0000   1.0000
     1.0000   1.0000   1.0000   1.0000   1.0000   1.0000   1.0000   1.0000
     1.0000   1.0000   1.0000   1.0000   1.0000   1.0000   1.0000   1.0000
     1.0000   1.0000   1.0000   1.0000   1.0000   1.0000   1.0000   1.0000
     1.0000   1.0000   1.0000   1.0000   1.0000   1.0000   1.0000   1.0000
     1.0000   1.0000   1.0000   1.0000   1.0000   1.0000   1.0000   1.0000
     1.0000   1.0000   1.0000   1.0000   1.0000   1.0000   1.0000   1.0000
     1.0000   1.0000   1.0000   1.0000   1.0000   1.0000   1.0000   1.0000
     1.0000   1.0000   1.0000   1.0000   1.0000   1.0000   1.0000   1.0000
     1.0000   1.0000   1.0000   1.0000   1.0000   1.0000   1.0000   1.0000
     1.0000   1.0000   1.0000   1.0000   1.0000   1.0000   1.0000   1.0000
     1.0000   1.0000   1.0000   1.0000   1.0000   1.0000   1.0000   1.0000
     1.0000   1.0000   1.0000   1.0000   1.0000   1.0000   1.0000   1.0000
     1.0000   1.0000   1.0000   1.0000   1.0000   1.0000   1.0000   1.0000
     1.0000   1.0000   1.0000   1.0000   1.0000   1.0000   1.0000   1.0000
     1.0000   1.0000   1.0000   1.0000   1.0000   1.0000   1.0000   1.0000
     1.0000   1.0000   1.0000   1.0000   1.0000   1.0000   1.0000   1.0000
     1.0000   1.0000   1.0000   1.0000   1.0000   1.0000   1.0000   1.0000
     1.0000   1.0000   1.0000   1.0000   1.0000   1.0000   1.0000   1.0000
     1.0000   1.0000   1.0000   1.0000   1.0000   1.0000   1.0000   1.0000
     0.0000   0.0000   0.0000   0.0000   0.0000   0.0000   0.0000   0.0000
     0.0000   0.0000   0.0000   0.0000   0.0000   0.0000   0.0000   0.0000
     0.0000   0.0000   0.0000   0.0000   0.0000   0.0000   0.0000   0.0000
     0.0000   0.0000   0.0000   0.0000   0.0000   0.0000   0.0000   0.0000
     0.0000   0.0000   0.0000   0.0000   0.0000   0.0000   0.0000   0.0000
     0.0000   0.0000   0.0000   0.0000   0.0000   0.0000   0.0000   0.0000
     0.0000   0.0000   0.0000   0.0000   0.0000   0.0000   0.0000   0.0000
     0.0000   0.0000   0.0000   0.0000   0.0000   0.0000   0.0000   0.0000
     0.0000   0.0000   0.0000   0.0000   0.0000   0.0000   0.0000   0.0000
     0.0000   0.0000   0.0000   0.0000   0.0000   0.0000   0.0000   0.0000
     0.0000   0.0000   0.0000   0.0000   0.0000   0.0000   0.0000   0.0000
     0.0000   0.0000   0.0000   0.0000

          k = 0.0250 0.0000 0.0000 (449403 PWs)   bands (ev):

   -21.6722 -21.6602 -21.6568 -21.6181 -21.6172 -21.5499 -21.5496 -21.4548
   -21.4546 -21.3329 -21.3327 -21.1840 -21.1839 -21.0085 -21.0085 -20.8066
   -20.8065 -20.5784 -20.5784 -20.3243 -20.3243 -20.0447 -20.0446 -19.7398
   -19.7398 -19.4104 -19.4103 -19.0569 -19.0569 -18.6804 -18.6803 -18.2820
   -18.2820 -17.8640 -17.8639 -17.4304 -17.4302 -16.9915 -16.9911 -16.5837
   -16.5814 -16.3668 -15.3647 -15.1307 -15.1283 -14.6626 -14.6622 -14.1268
   -14.1267 -13.5588 -13.5588 -12.9700 -12.9699 -12.3659 -12.3658 -11.7506
   -11.7506 -11.1282 -11.1281 -10.5029 -10.5029  -9.8805  -9.8805  -9.7714
    -9.7568  -9.7536  -9.7071  -9.7063  -9.6264  -9.6262  -9.5141  -9.5140
    -9.3707  -9.3705  -9.2720  -9.2719  -9.1970  -9.1970  -8.9959  -8.9959
    -8.7797  -8.7797  -8.7472  -8.7472  -8.6365  -8.6246  -8.6213  -8.5830
    -8.5821  -8.5158  -8.5155  -8.4227  -8.4226  -8.3534  -8.3533  -8.3042
    -8.3040  -8.1610  -8.1610  -8.1421  -8.1421  -7.9974  -7.9973  -7.9945
    -7.9944  -7.8311  -7.8311  -7.8059  -7.8059  -7.5974  -7.5974  -7.4861
    -7.4861  -7.4549  -7.4549  -7.3710  -7.3710  -7.1299  -7.1298  -7.1153
    -7.1153  -6.9341  -6.9339  -6.8776  -6.8776  -6.7235  -6.7235  -6.6187
    -6.6186  -6.4578  -6.4576  -6.3587  -6.3586  -6.3159  -6.3159  -6.1043
    -6.1043  -6.0410  -6.0408  -5.9001  -5.9000  -5.8638  -5.8637  -5.6975
    -5.6973  -5.6463  -5.6461  -5.4876  -5.4874  -5.4619  -5.4617  -5.4406
    -5.4400  -5.3212  -5.3207  -5.2802  -5.2798  -5.2334  -5.2329  -5.2236
    -5.2051  -5.0972  -5.0971  -4.7600  -4.7594  -4.5225  -4.5194  -4.4330
    -0.4264  -0.3198  -0.3167  -0.0195  -0.0188   0.4178   0.4180   0.9453
     0.9454   1.1309   1.1734   1.1757   1.2077   1.2336   1.3392   1.3395
     1.4489   1.4872   1.5302   1.5303   1.6378   1.6379   1.7969   1.8570
     1.8754   1.9652   1.9866   1.9872   2.0391   2.0392   2.0599   2.1503
     2.1504   2.1732   2.1742   2.2089   2.2276   2.2745   2.3000   2.4011
     2.4095   2.4987   2.4987   2.5172   2.5175   2.5800   2.5806   2.5995
     2.6441   2.6442   2.7082   2.7594   2.7882   2.7886   2.8589   2.8651
     2.8752   2.9468   3.0174   3.0178   3.0187   3.0929   3.0951   3.0953
     3.1335   3.1666   3.1679   3.2177   3.2923   3.3435   3.3436   3.3513
     3.3917   3.4109   3.4110   3.4774   3.4782   3.5015   3.5103   3.6225
     3.6229   3.6996   3.6999   3.7521   3.7638   3.7830   3.7836   3.8172
     3.9059   3.9104   3.9562   3.9572

     occupation numbers 
     1.0000   1.0000   1.0000   1.0000   1.0000   1.0000   1.0000   1.0000
     1.0000   1.0000   1.0000   1.0000   1.0000   1.0000   1.0000   1.0000
     1.0000   1.0000   1.0000   1.0000   1.0000   1.0000   1.0000   1.0000
     1.0000   1.0000   1.0000   1.0000   1.0000   1.0000   1.0000   1.0000
     1.0000   1.0000   1.0000   1.0000   1.0000   1.0000   1.0000   1.0000
     1.0000   1.0000   1.0000   1.0000   1.0000   1.0000   1.0000   1.0000
     1.0000   1.0000   1.0000   1.0000   1.0000   1.0000   1.0000   1.0000
     1.0000   1.0000   1.0000   1.0000   1.0000   1.0000   1.0000   1.0000
     1.0000   1.0000   1.0000   1.0000   1.0000   1.0000   1.0000   1.0000
     1.0000   1.0000   1.0000   1.0000   1.0000   1.0000   1.0000   1.0000
     1.0000   1.0000   1.0000   1.0000   1.0000   1.0000   1.0000   1.0000
     1.0000   1.0000   1.0000   1.0000   1.0000   1.0000   1.0000   1.0000
     1.0000   1.0000   1.0000   1.0000   1.0000   1.0000   1.0000   1.0000
     1.0000   1.0000   1.0000   1.0000   1.0000   1.0000   1.0000   1.0000
     1.0000   1.0000   1.0000   1.0000   1.0000   1.0000   1.0000   1.0000
     1.0000   1.0000   1.0000   1.0000   1.0000   1.0000   1.0000   1.0000
     1.0000   1.0000   1.0000   1.0000   1.0000   1.0000   1.0000   1.0000
     1.0000   1.0000   1.0000   1.0000   1.0000   1.0000   1.0000   1.0000
     1.0000   1.0000   1.0000   1.0000   1.0000   1.0000   1.0000   1.0000
     1.0000   1.0000   1.0000   1.0000   1.0000   1.0000   1.0000   1.0000
     1.0000   1.0000   1.0000   1.0000   1.0000   1.0000   1.0000   1.0000
     0.0000   0.0000   0.0000   0.0000   0.0000   0.0000   0.0000   0.0000
     0.0000   0.0000   0.0000   0.0000   0.0000   0.0000   0.0000   0.0000
     0.0000   0.0000   0.0000   0.0000   0.0000   0.0000   0.0000   0.0000
     0.0000   0.0000   0.0000   0.0000   0.0000   0.0000   0.0000   0.0000
     0.0000   0.0000   0.0000   0.0000   0.0000   0.0000   0.0000   0.0000
     0.0000   0.0000   0.0000   0.0000   0.0000   0.0000   0.0000   0.0000
     0.0000   0.0000   0.0000   0.0000   0.0000   0.0000   0.0000   0.0000
     0.0000   0.0000   0.0000   0.0000   0.0000   0.0000   0.0000   0.0000
     0.0000   0.0000   0.0000   0.0000   0.0000   0.0000   0.0000   0.0000
     0.0000   0.0000   0.0000   0.0000   0.0000   0.0000   0.0000   0.0000
     0.0000   0.0000   0.0000   0.0000   0.0000   0.0000   0.0000   0.0000
     0.0000   0.0000   0.0000   0.0000

          k = 0.0333 0.0000 0.0000 (449511 PWs)   bands (ev):

   -21.6635 -21.6515 -21.6482 -21.6094 -21.6085 -21.5412 -21.5409 -21.4462
   -21.4460 -21.3242 -21.3240 -21.1754 -21.1753 -20.9999 -20.9999 -20.7980
   -20.7979 -20.5698 -20.5698 -20.3158 -20.3158 -20.0362 -20.0361 -19.7314
   -19.7314 -19.4020 -19.4020 -19.0486 -19.0486 -18.6722 -18.6721 -18.2739
   -18.2738 -17.8560 -17.8559 -17.4225 -17.4224 -16.9838 -16.9834 -16.5762
   -16.5738 -16.3594 -15.3574 -15.1235 -15.1212 -14.6557 -14.6554 -14.1203
   -14.1202 -13.5528 -13.5528 -12.9645 -12.9645 -12.3611 -12.3610 -11.7467
   -11.7466 -11.1252 -11.1252 -10.5012 -10.5011  -9.8803  -9.8803  -9.7610
    -9.7465  -9.7432  -9.6968  -9.6960  -9.6161  -9.6159  -9.5039  -9.5037
    -9.3605  -9.3603  -9.2734  -9.2733  -9.1869  -9.1868  -8.9859  -8.9859
    -8.7704  -8.7704  -8.7471  -8.7470  -8.6747  -8.6628  -8.6594  -8.6211
    -8.6202  -8.5539  -8.5536  -8.4607  -8.4605  -8.3477  -8.3476  -8.3420
    -8.3418  -8.1986  -8.1985  -8.1325  -8.1325  -8.0317  -8.0317  -8.0037
    -8.0036  -7.8428  -7.8427  -7.8213  -7.8213  -7.6337  -7.6337  -7.4763
    -7.4762  -7.4653  -7.4653  -7.4066  -7.4065  -7.1645  -7.1645  -7.1056
    -7.1056  -6.9487  -6.9485  -6.9111  -6.9111  -6.7138  -6.7138  -6.6507
    -6.6507  -6.4771  -6.4770  -6.3889  -6.3889  -6.3062  -6.3062  -6.1324
    -6.1324  -6.0654  -6.0652  -5.8904  -5.8903  -5.8895  -5.8893  -5.7267
    -5.7266  -5.6694  -5.6693  -5.4827  -5.4825  -5.4778  -5.4777  -5.4735
    -5.4731  -5.3403  -5.3399  -5.3150  -5.3145  -5.2588  -5.2523  -5.2518
    -5.2241  -5.0873  -5.0872  -4.7499  -4.7492  -4.5121  -4.5090  -4.4225
    -0.4289  -0.3222  -0.3191  -0.0220  -0.0213   0.4151   0.4152   0.9420
     0.9422   1.1427   1.1851   1.1874   1.2194   1.2453   1.3510   1.3512
     1.4607   1.4989   1.5262   1.5263   1.6495   1.6497   1.8087   1.8687
     1.8873   1.9771   1.9985   1.9991   2.0509   2.0511   2.0718   2.1453
     2.1454   2.1851   2.1861   2.2208   2.2395   2.2865   2.3118   2.4130
     2.4215   2.5105   2.5106   2.5291   2.5294   2.5920   2.5926   2.6115
     2.6561   2.6562   2.7200   2.7712   2.7821   2.7826   2.8709   2.8771
     2.8870   2.9587   3.0294   3.0297   3.0307   3.1049   3.1069   3.1071
     3.1454   3.1785   3.1799   3.2296   3.3042   3.3550   3.3551   3.3632
     3.4036   3.4069   3.4070   3.4891   3.4900   3.5133   3.5220   3.6332
     3.6336   3.7110   3.7112   3.7640   3.7757   3.7936   3.7942   3.8291
     3.9178   3.9219   3.9678   3.9689

     occupation numbers 
     1.0000   1.0000   1.0000   1.0000   1.0000   1.0000   1.0000   1.0000
     1.0000   1.0000   1.0000   1.0000   1.0000   1.0000   1.0000   1.0000
     1.0000   1.0000   1.0000   1.0000   1.0000   1.0000   1.0000   1.0000
     1.0000   1.0000   1.0000   1.0000   1.0000   1.0000   1.0000   1.0000
     1.0000   1.0000   1.0000   1.0000   1.0000   1.0000   1.0000   1.0000
     1.0000   1.0000   1.0000   1.0000   1.0000   1.0000   1.0000   1.0000
     1.0000   1.0000   1.0000   1.0000   1.0000   1.0000   1.0000   1.0000
     1.0000   1.0000   1.0000   1.0000   1.0000   1.0000   1.0000   1.0000
     1.0000   1.0000   1.0000   1.0000   1.0000   1.0000   1.0000   1.0000
     1.0000   1.0000   1.0000   1.0000   1.0000   1.0000   1.0000   1.0000
     1.0000   1.0000   1.0000   1.0000   1.0000   1.0000   1.0000   1.0000
     1.0000   1.0000   1.0000   1.0000   1.0000   1.0000   1.0000   1.0000
     1.0000   1.0000   1.0000   1.0000   1.0000   1.0000   1.0000   1.0000
     1.0000   1.0000   1.0000   1.0000   1.0000   1.0000   1.0000   1.0000
     1.0000   1.0000   1.0000   1.0000   1.0000   1.0000   1.0000   1.0000
     1.0000   1.0000   1.0000   1.0000   1.0000   1.0000   1.0000   1.0000
     1.0000   1.0000   1.0000   1.0000   1.0000   1.0000   1.0000   1.0000
     1.0000   1.0000   1.0000   1.0000   1.0000   1.0000   1.0000   1.0000
     1.0000   1.0000   1.0000   1.0000   1.0000   1.0000   1.0000   1.0000
     1.0000   1.0000   1.0000   1.0000   1.0000   1.0000   1.0000   1.0000
     1.0000   1.0000   1.0000   1.0000   1.0000   1.0000   1.0000   1.0000
     0.0000   0.0000   0.0000   0.0000   0.0000   0.0000   0.0000   0.0000
     0.0000   0.0000   0.0000   0.0000   0.0000   0.0000   0.0000   0.0000
     0.0000   0.0000   0.0000   0.0000   0.0000   0.0000   0.0000   0.0000
     0.0000   0.0000   0.0000   0.0000   0.0000   0.0000   0.0000   0.0000
     0.0000   0.0000   0.0000   0.0000   0.0000   0.0000   0.0000   0.0000
     0.0000   0.0000   0.0000   0.0000   0.0000   0.0000   0.0000   0.0000
     0.0000   0.0000   0.0000   0.0000   0.0000   0.0000   0.0000   0.0000
     0.0000   0.0000   0.0000   0.0000   0.0000   0.0000   0.0000   0.0000
     0.0000   0.0000   0.0000   0.0000   0.0000   0.0000   0.0000   0.0000
     0.0000   0.0000   0.0000   0.0000   0.0000   0.0000   0.0000   0.0000
     0.0000   0.0000   0.0000   0.0000   0.0000   0.0000   0.0000   0.0000
     0.0000   0.0000   0.0000   0.0000

          k = 0.0417 0.0000 0.0000 (449591 PWs)   bands (ev):

   -21.6523 -21.6403 -21.6370 -21.5983 -21.5974 -21.5301 -21.5298 -21.4350
   -21.4349 -21.3131 -21.3129 -21.1643 -21.1642 -20.9888 -20.9888 -20.7870
   -20.7869 -20.5589 -20.5588 -20.3048 -20.3048 -20.0253 -20.0252 -19.7206
   -19.7205 -19.3912 -19.3912 -19.0379 -19.0379 -18.6616 -18.6615 -18.2634
   -18.2634 -17.8457 -17.8456 -17.4124 -17.4122 -16.9738 -16.9735 -16.5665
   -16.5642 -16.3499 -15.3479 -15.1143 -15.1119 -14.6470 -14.6466 -14.1120
   -14.1119 -13.5451 -13.5450 -12.9575 -12.9575 -12.3550 -12.3549 -11.7416
   -11.7416 -11.1215 -11.1215 -10.4990 -10.4990  -9.8801  -9.8801  -9.7478
    -9.7332  -9.7300  -9.6836  -9.6827  -9.6029  -9.6026  -9.4907  -9.4905
    -9.3474  -9.3472  -9.2754  -9.2753  -9.1738  -9.1738  -8.9731  -8.9730
    -8.7584  -8.7584  -8.7474  -8.7473  -8.7233  -8.7113  -8.7080  -8.6697
    -8.6688  -8.6023  -8.6020  -8.5089  -8.5088  -8.3901  -8.3899  -8.3401
    -8.3401  -8.2463  -8.2463  -8.1202  -8.1202  -8.0791  -8.0790  -8.0121
    -8.0120  -7.8896  -7.8896  -7.8087  -7.8087  -7.6798  -7.6798  -7.4792
    -7.4792  -7.4636  -7.4636  -7.4517  -7.4517  -7.2084  -7.2084  -7.0930
    -7.0930  -6.9683  -6.9681  -6.9534  -6.9534  -6.7013  -6.7013  -6.6910
    -6.6910  -6.5030  -6.5028  -6.4268  -6.4268  -6.2937  -6.2937  -6.1674
    -6.1674  -6.0978  -6.0976  -5.9212  -5.9210  -5.8779  -5.8778  -5.7653
    -5.7652  -5.6976  -5.6975  -5.5165  -5.5162  -5.5079  -5.5077  -5.4652
    -5.4651  -5.3638  -5.3636  -5.3600  -5.3588  -5.3036  -5.2765  -5.2753
    -5.2485  -5.0746  -5.0744  -4.7368  -4.7362  -4.4988  -4.4957  -4.4089
    -0.4322  -0.3255  -0.3224  -0.0252  -0.0246   0.4115   0.4116   0.9378
     0.9379   1.1578   1.2002   1.2025   1.2345   1.2604   1.3660   1.3663
     1.4758   1.5140   1.5209   1.5210   1.6646   1.6648   1.8239   1.8839
     1.9026   1.9924   2.0138   2.0144   2.0661   2.0662   2.0871   2.1387
     2.1388   2.2003   2.2014   2.2361   2.2548   2.3020   2.3270   2.4281
     2.4369   2.5258   2.5258   2.5444   2.5447   2.6073   2.6079   2.6268
     2.6715   2.6716   2.7353   2.7742   2.7744   2.7867   2.8863   2.8924
     2.9023   2.9740   3.0447   3.0450   3.0460   3.1203   3.1221   3.1222
     3.1608   3.1939   3.1952   3.2449   3.3195   3.3690   3.3692   3.3784
     3.4019   3.4019   3.4190   3.5043   3.5052   3.5286   3.5370   3.6472
     3.6476   3.7257   3.7259   3.7792   3.7909   3.8075   3.8081   3.8444
     3.9331   3.9364   3.9828   3.9839

     occupation numbers 
     1.0000   1.0000   1.0000   1.0000   1.0000   1.0000   1.0000   1.0000
     1.0000   1.0000   1.0000   1.0000   1.0000   1.0000   1.0000   1.0000
     1.0000   1.0000   1.0000   1.0000   1.0000   1.0000   1.0000   1.0000
     1.0000   1.0000   1.0000   1.0000   1.0000   1.0000   1.0000   1.0000
     1.0000   1.0000   1.0000   1.0000   1.0000   1.0000   1.0000   1.0000
     1.0000   1.0000   1.0000   1.0000   1.0000   1.0000   1.0000   1.0000
     1.0000   1.0000   1.0000   1.0000   1.0000   1.0000   1.0000   1.0000
     1.0000   1.0000   1.0000   1.0000   1.0000   1.0000   1.0000   1.0000
     1.0000   1.0000   1.0000   1.0000   1.0000   1.0000   1.0000   1.0000
     1.0000   1.0000   1.0000   1.0000   1.0000   1.0000   1.0000   1.0000
     1.0000   1.0000   1.0000   1.0000   1.0000   1.0000   1.0000   1.0000
     1.0000   1.0000   1.0000   1.0000   1.0000   1.0000   1.0000   1.0000
     1.0000   1.0000   1.0000   1.0000   1.0000   1.0000   1.0000   1.0000
     1.0000   1.0000   1.0000   1.0000   1.0000   1.0000   1.0000   1.0000
     1.0000   1.0000   1.0000   1.0000   1.0000   1.0000   1.0000   1.0000
     1.0000   1.0000   1.0000   1.0000   1.0000   1.0000   1.0000   1.0000
     1.0000   1.0000   1.0000   1.0000   1.0000   1.0000   1.0000   1.0000
     1.0000   1.0000   1.0000   1.0000   1.0000   1.0000   1.0000   1.0000
     1.0000   1.0000   1.0000   1.0000   1.0000   1.0000   1.0000   1.0000
     1.0000   1.0000   1.0000   1.0000   1.0000   1.0000   1.0000   1.0000
     1.0000   1.0000   1.0000   1.0000   1.0000   1.0000   1.0000   1.0000
     0.0000   0.0000   0.0000   0.0000   0.0000   0.0000   0.0000   0.0000
     0.0000   0.0000   0.0000   0.0000   0.0000   0.0000   0.0000   0.0000
     0.0000   0.0000   0.0000   0.0000   0.0000   0.0000   0.0000   0.0000
     0.0000   0.0000   0.0000   0.0000   0.0000   0.0000   0.0000   0.0000
     0.0000   0.0000   0.0000   0.0000   0.0000   0.0000   0.0000   0.0000
     0.0000   0.0000   0.0000   0.0000   0.0000   0.0000   0.0000   0.0000
     0.0000   0.0000   0.0000   0.0000   0.0000   0.0000   0.0000   0.0000
     0.0000   0.0000   0.0000   0.0000   0.0000   0.0000   0.0000   0.0000
     0.0000   0.0000   0.0000   0.0000   0.0000   0.0000   0.0000   0.0000
     0.0000   0.0000   0.0000   0.0000   0.0000   0.0000   0.0000   0.0000
     0.0000   0.0000   0.0000   0.0000   0.0000   0.0000   0.0000   0.0000
     0.0000   0.0000   0.0000   0.0000

          k = 0.0500 0.0000 0.0000 (449455 PWs)   bands (ev):

   -21.6387 -21.6267 -21.6234 -21.5846 -21.5838 -21.5165 -21.5162 -21.4214
   -21.4213 -21.2995 -21.2994 -21.1507 -21.1506 -20.9753 -20.9753 -20.7735
   -20.7734 -20.5454 -20.5454 -20.2914 -20.2914 -20.0120 -20.0119 -19.7073
   -19.7073 -19.3781 -19.3780 -19.0249 -19.0249 -18.6487 -18.6486 -18.2507
   -18.2506 -17.8331 -17.8330 -17.4000 -17.3998 -16.9617 -16.9613 -16.5547
   -16.5523 -16.3383 -15.3364 -15.1030 -15.1007 -14.6362 -14.6358 -14.1019
   -14.1018 -13.5357 -13.5356 -12.9490 -12.9490 -12.3476 -12.3475 -11.7355
   -11.7355 -11.1171 -11.1170 -10.4966 -10.4966  -9.8801  -9.8801  -9.7315
    -9.7169  -9.7137  -9.6674  -9.6665  -9.5867  -9.5865  -9.4746  -9.4744
    -9.3313  -9.3311  -9.2782  -9.2781  -9.1579  -9.1579  -8.9574  -8.9574
    -8.7820  -8.7700  -8.7667  -8.7484  -8.7484  -8.7440  -8.7440  -8.7283
    -8.7274  -8.6608  -8.6605  -8.5672  -8.5671  -8.4481  -8.4479  -8.3306
    -8.3305  -8.3040  -8.3039  -8.1362  -8.1362  -8.1051  -8.1051  -8.0229
    -8.0228  -7.9460  -7.9460  -7.7934  -7.7934  -7.7353  -7.7353  -7.5059
    -7.5059  -7.4970  -7.4970  -7.4482  -7.4482  -7.2611  -7.2611  -7.0777
    -7.0777  -7.0040  -7.0040  -6.9932  -6.9931  -6.7391  -6.7390  -6.6860
    -6.6860  -6.5359  -6.5358  -6.4716  -6.4716  -6.2785  -6.2785  -6.2084
    -6.2083  -6.1389  -6.1387  -5.9579  -5.9577  -5.8627  -5.8626  -5.8135
    -5.8134  -5.7300  -5.7299  -5.5693  -5.5692  -5.5369  -5.5368  -5.4499
    -5.4498  -5.4144  -5.4127  -5.3915  -5.3915  -5.3578  -5.3056  -5.3039
    -5.2782  -5.0591  -5.0589  -4.7209  -4.7203  -4.4824  -4.4793  -4.3924
    -0.4363  -0.3295  -0.3264  -0.0294  -0.0287   0.4069   0.4071   0.9324
     0.9325   1.1762   1.2187   1.2209   1.2530   1.2789   1.3845   1.3847
     1.4943   1.5142   1.5143   1.5325   1.6831   1.6833   1.8424   1.9024
     1.9214   2.0111   2.0324   2.0331   2.0846   2.0848   2.1057   2.1304
     2.1305   2.2190   2.2200   2.2547   2.2735   2.3209   2.3455   2.4467
     2.4557   2.5444   2.5445   2.5631   2.5634   2.6261   2.6267   2.6455
     2.6904   2.6905   2.7538   2.7645   2.7646   2.8053   2.9051   2.9112
     2.9209   2.9927   3.0634   3.0638   3.0647   3.1391   3.1406   3.1408
     3.1796   3.2126   3.2139   3.2636   3.3381   3.3807   3.3808   3.3970
     3.4003   3.4003   3.4377   3.5230   3.5238   3.5472   3.5553   3.6646
     3.6650   3.7438   3.7440   3.7978   3.8096   3.8246   3.8252   3.8630
     3.9518   3.9536   4.0012   4.0022

     occupation numbers 
     1.0000   1.0000   1.0000   1.0000   1.0000   1.0000   1.0000   1.0000
     1.0000   1.0000   1.0000   1.0000   1.0000   1.0000   1.0000   1.0000
     1.0000   1.0000   1.0000   1.0000   1.0000   1.0000   1.0000   1.0000
     1.0000   1.0000   1.0000   1.0000   1.0000   1.0000   1.0000   1.0000
     1.0000   1.0000   1.0000   1.0000   1.0000   1.0000   1.0000   1.0000
     1.0000   1.0000   1.0000   1.0000   1.0000   1.0000   1.0000   1.0000
     1.0000   1.0000   1.0000   1.0000   1.0000   1.0000   1.0000   1.0000
     1.0000   1.0000   1.0000   1.0000   1.0000   1.0000   1.0000   1.0000
     1.0000   1.0000   1.0000   1.0000   1.0000   1.0000   1.0000   1.0000
     1.0000   1.0000   1.0000   1.0000   1.0000   1.0000   1.0000   1.0000
     1.0000   1.0000   1.0000   1.0000   1.0000   1.0000   1.0000   1.0000
     1.0000   1.0000   1.0000   1.0000   1.0000   1.0000   1.0000   1.0000
     1.0000   1.0000   1.0000   1.0000   1.0000   1.0000   1.0000   1.0000
     1.0000   1.0000   1.0000   1.0000   1.0000   1.0000   1.0000   1.0000
     1.0000   1.0000   1.0000   1.0000   1.0000   1.0000   1.0000   1.0000
     1.0000   1.0000   1.0000   1.0000   1.0000   1.0000   1.0000   1.0000
     1.0000   1.0000   1.0000   1.0000   1.0000   1.0000   1.0000   1.0000
     1.0000   1.0000   1.0000   1.0000   1.0000   1.0000   1.0000   1.0000
     1.0000   1.0000   1.0000   1.0000   1.0000   1.0000   1.0000   1.0000
     1.0000   1.0000   1.0000   1.0000   1.0000   1.0000   1.0000   1.0000
     1.0000   1.0000   1.0000   1.0000   1.0000   1.0000   1.0000   1.0000
     0.0000   0.0000   0.0000   0.0000   0.0000   0.0000   0.0000   0.0000
     0.0000   0.0000   0.0000   0.0000   0.0000   0.0000   0.0000   0.0000
     0.0000   0.0000   0.0000   0.0000   0.0000   0.0000   0.0000   0.0000
     0.0000   0.0000   0.0000   0.0000   0.0000   0.0000   0.0000   0.0000
     0.0000   0.0000   0.0000   0.0000   0.0000   0.0000   0.0000   0.0000
     0.0000   0.0000   0.0000   0.0000   0.0000   0.0000   0.0000   0.0000
     0.0000   0.0000   0.0000   0.0000   0.0000   0.0000   0.0000   0.0000
     0.0000   0.0000   0.0000   0.0000   0.0000   0.0000   0.0000   0.0000
     0.0000   0.0000   0.0000   0.0000   0.0000   0.0000   0.0000   0.0000
     0.0000   0.0000   0.0000   0.0000   0.0000   0.0000   0.0000   0.0000
     0.0000   0.0000   0.0000   0.0000   0.0000   0.0000   0.0000   0.0000
     0.0000   0.0000   0.0000   0.0000

          k = 0.0583 0.0000 0.0000 (449359 PWs)   bands (ev):

   -21.6226 -21.6106 -21.6073 -21.5685 -21.5677 -21.5004 -21.5001 -21.4054
   -21.4052 -21.2835 -21.2833 -21.1347 -21.1346 -20.9593 -20.9593 -20.7575
   -20.7575 -20.5295 -20.5295 -20.2756 -20.2756 -19.9962 -19.9962 -19.6917
   -19.6916 -19.3625 -19.3625 -19.0095 -19.0094 -18.6334 -18.6333 -18.2356
   -18.2355 -17.8182 -17.8181 -17.3853 -17.3852 -16.9474 -16.9470 -16.5407
   -16.5383 -16.3246 -15.3228 -15.0898 -15.0874 -14.6236 -14.6232 -14.0899
   -14.0899 -13.5246 -13.5246 -12.9390 -12.9390 -12.3389 -12.3388 -11.7284
   -11.7284 -11.1119 -11.1119 -10.4939 -10.4939  -9.8805  -9.8804  -9.7124
    -9.6978  -9.6946  -9.6482  -9.6474  -9.5676  -9.5673  -9.4555  -9.4554
    -9.3124  -9.3122  -9.2819  -9.2818  -9.1391  -9.1391  -8.9389  -8.9389
    -8.8504  -8.8384  -8.8351  -8.7966  -8.7957  -8.7508  -8.7508  -8.7289
    -8.7286  -8.7271  -8.7270  -8.6351  -8.6350  -8.5156  -8.5155  -8.3711
    -8.3710  -8.3189  -8.3189  -8.2026  -8.2026  -8.0874  -8.0874  -8.0365
    -8.0364  -8.0115  -8.0115  -7.7998  -7.7998  -7.7754  -7.7754  -7.5686
    -7.5686  -7.5193  -7.5193  -7.4300  -7.4300  -7.3219  -7.3219  -7.0622
    -7.0622  -7.0596  -7.0596  -7.0244  -7.0242  -6.7940  -6.7939  -6.6680
    -6.6680  -6.5766  -6.5765  -6.5224  -6.5223  -6.2606  -6.2605  -6.2543
    -6.2542  -6.1892  -6.1890  -5.9984  -5.9982  -5.8716  -5.8716  -5.8447
    -5.8446  -5.7656  -5.7655  -5.6317  -5.6316  -5.5692  -5.5691  -5.4779
    -5.4758  -5.4318  -5.4317  -5.4241  -5.4233  -5.4201  -5.3395  -5.3375
    -5.3131  -5.0407  -5.0405  -4.7021  -4.7015  -4.4631  -4.4600  -4.3729
    -0.4413  -0.3345  -0.3314  -0.0344  -0.0338   0.4014   0.4016   0.9258
     0.9260   1.1980   1.2404   1.2427   1.2748   1.3006   1.4063   1.4065
     1.5062   1.5063   1.5161   1.5542   1.7050   1.7051   1.8643   1.9242
     1.9435   2.0332   2.0545   2.0552   2.1066   2.1067   2.1205   2.1205
     2.1278   2.2411   2.2421   2.2768   2.2956   2.3432   2.3675   2.4686
     2.4779   2.5664   2.5665   2.5851   2.5854   2.6483   2.6489   2.6677
     2.7126   2.7128   2.7520   2.7525   2.7763   2.8273   2.9274   2.9334
     2.9429   3.0148   3.0855   3.0859   3.0869   3.1614   3.1625   3.1627
     3.2018   3.2347   3.2361   3.2857   3.3602   3.3759   3.3760   3.4158
     3.4159   3.4190   3.4599   3.5450   3.5459   3.5692   3.5769   3.6853
     3.6857   3.7653   3.7655   3.8198   3.8316   3.8451   3.8457   3.8851
     3.9725   3.9739   4.0229   4.0239

     occupation numbers 
     1.0000   1.0000   1.0000   1.0000   1.0000   1.0000   1.0000   1.0000
     1.0000   1.0000   1.0000   1.0000   1.0000   1.0000   1.0000   1.0000
     1.0000   1.0000   1.0000   1.0000   1.0000   1.0000   1.0000   1.0000
     1.0000   1.0000   1.0000   1.0000   1.0000   1.0000   1.0000   1.0000
     1.0000   1.0000   1.0000   1.0000   1.0000   1.0000   1.0000   1.0000
     1.0000   1.0000   1.0000   1.0000   1.0000   1.0000   1.0000   1.0000
     1.0000   1.0000   1.0000   1.0000   1.0000   1.0000   1.0000   1.0000
     1.0000   1.0000   1.0000   1.0000   1.0000   1.0000   1.0000   1.0000
     1.0000   1.0000   1.0000   1.0000   1.0000   1.0000   1.0000   1.0000
     1.0000   1.0000   1.0000   1.0000   1.0000   1.0000   1.0000   1.0000
     1.0000   1.0000   1.0000   1.0000   1.0000   1.0000   1.0000   1.0000
     1.0000   1.0000   1.0000   1.0000   1.0000   1.0000   1.0000   1.0000
     1.0000   1.0000   1.0000   1.0000   1.0000   1.0000   1.0000   1.0000
     1.0000   1.0000   1.0000   1.0000   1.0000   1.0000   1.0000   1.0000
     1.0000   1.0000   1.0000   1.0000   1.0000   1.0000   1.0000   1.0000
     1.0000   1.0000   1.0000   1.0000   1.0000   1.0000   1.0000   1.0000
     1.0000   1.0000   1.0000   1.0000   1.0000   1.0000   1.0000   1.0000
     1.0000   1.0000   1.0000   1.0000   1.0000   1.0000   1.0000   1.0000
     1.0000   1.0000   1.0000   1.0000   1.0000   1.0000   1.0000   1.0000
     1.0000   1.0000   1.0000   1.0000   1.0000   1.0000   1.0000   1.0000
     1.0000   1.0000   1.0000   1.0000   1.0000   1.0000   1.0000   1.0000
     0.0000   0.0000   0.0000   0.0000   0.0000   0.0000   0.0000   0.0000
     0.0000   0.0000   0.0000   0.0000   0.0000   0.0000   0.0000   0.0000
     0.0000   0.0000   0.0000   0.0000   0.0000   0.0000   0.0000   0.0000
     0.0000   0.0000   0.0000   0.0000   0.0000   0.0000   0.0000   0.0000
     0.0000   0.0000   0.0000   0.0000   0.0000   0.0000   0.0000   0.0000
     0.0000   0.0000   0.0000   0.0000   0.0000   0.0000   0.0000   0.0000
     0.0000   0.0000   0.0000   0.0000   0.0000   0.0000   0.0000   0.0000
     0.0000   0.0000   0.0000   0.0000   0.0000   0.0000   0.0000   0.0000
     0.0000   0.0000   0.0000   0.0000   0.0000   0.0000   0.0000   0.0000
     0.0000   0.0000   0.0000   0.0000   0.0000   0.0000   0.0000   0.0000
     0.0000   0.0000   0.0000   0.0000   0.0000   0.0000   0.0000   0.0000
     0.0000   0.0000   0.0000   0.0000

          k = 0.0667 0.0000 0.0000 (449463 PWs)   bands (ev):

   -21.6040 -21.5920 -21.5887 -21.5500 -21.5491 -21.4818 -21.4815 -21.3868
   -21.3866 -21.2650 -21.2648 -21.1162 -21.1161 -20.9409 -20.9409 -20.7392
   -20.7391 -20.5112 -20.5112 -20.2574 -20.2574 -19.9781 -19.9780 -19.6736
   -19.6736 -19.3446 -19.3446 -18.9917 -18.9916 -18.6158 -18.6157 -18.2182
   -18.2181 -17.8010 -17.8009 -17.3684 -17.3683 -16.9308 -16.9304 -16.5245
   -16.5222 -16.3088 -15.3071 -15.0745 -15.0722 -14.6090 -14.6086 -14.0762
   -14.0761 -13.5119 -13.5119 -12.9276 -12.9275 -12.3290 -12.3289 -11.7204
   -11.7204 -11.1063 -11.1062 -10.4912 -10.4912  -9.8813  -9.8813  -9.6902
    -9.6757  -9.6725  -9.6261  -9.6253  -9.5456  -9.5453  -9.4336  -9.4334
    -9.2905  -9.2903  -9.2869  -9.2868  -9.1174  -9.1174  -8.9281  -8.9176
    -8.9176  -8.9161  -8.9127  -8.8741  -8.8732  -8.8063  -8.8060  -8.7551
    -8.7550  -8.7122  -8.7120  -8.7078  -8.7078  -8.5923  -8.5921  -8.4472
    -8.4471  -8.3049  -8.3048  -8.2779  -8.2779  -8.0860  -8.0859  -8.0670
    -8.0670  -8.0529  -8.0528  -7.8726  -7.8726  -7.7550  -7.7550  -7.6389
    -7.6389  -7.5468  -7.5467  -7.4090  -7.4090  -7.3902  -7.3902  -7.1273
    -7.1273  -7.0625  -7.0623  -7.0387  -7.0387  -6.8548  -6.8548  -6.6472
    -6.6472  -6.6260  -6.6259  -6.5780  -6.5780  -6.3038  -6.3038  -6.2491
    -6.2490  -6.2399  -6.2398  -6.0416  -6.0415  -5.9394  -5.9394  -5.8240
    -5.8239  -5.8034  -5.8034  -5.7033  -5.7032  -5.6044  -5.6043  -5.5500
    -5.5477  -5.4927  -5.4593  -5.4592  -5.4110  -5.4109  -5.3783  -5.3760
    -5.3532  -5.0195  -5.0194  -4.6804  -4.6798  -4.4409  -4.4378  -4.3504
    -0.4474  -0.3405  -0.3375  -0.0405  -0.0398   0.3948   0.3949   0.9180
     0.9182   1.2232   1.2656   1.2678   1.3000   1.3258   1.4314   1.4317
     1.4966   1.4967   1.5413   1.5794   1.7301   1.7303   1.8896   1.9494
     1.9691   2.0586   2.0800   2.0807   2.1086   2.1087   2.1318   2.1320
     2.1533   2.2665   2.2675   2.3023   2.3211   2.3690   2.3927   2.4939
     2.5036   2.5918   2.5919   2.6106   2.6109   2.6739   2.6745   2.6932
     2.7378   2.7381   2.7384   2.7385   2.8017   2.8528   2.9531   2.9590
     2.9683   3.0403   3.1110   3.1114   3.1124   3.1871   3.1877   3.1879
     3.2274   3.2603   3.2616   3.3111   3.3628   3.3629   3.3856   3.4402
     3.4403   3.4443   3.4855   3.5705   3.5714   3.5945   3.6017   3.7096
     3.7100   3.7902   3.7904   3.8452   3.8570   3.8690   3.8696   3.9105
     3.9887   3.9994   4.0281   4.0470

     occupation numbers 
     1.0000   1.0000   1.0000   1.0000   1.0000   1.0000   1.0000   1.0000
     1.0000   1.0000   1.0000   1.0000   1.0000   1.0000   1.0000   1.0000
     1.0000   1.0000   1.0000   1.0000   1.0000   1.0000   1.0000   1.0000
     1.0000   1.0000   1.0000   1.0000   1.0000   1.0000   1.0000   1.0000
     1.0000   1.0000   1.0000   1.0000   1.0000   1.0000   1.0000   1.0000
     1.0000   1.0000   1.0000   1.0000   1.0000   1.0000   1.0000   1.0000
     1.0000   1.0000   1.0000   1.0000   1.0000   1.0000   1.0000   1.0000
     1.0000   1.0000   1.0000   1.0000   1.0000   1.0000   1.0000   1.0000
     1.0000   1.0000   1.0000   1.0000   1.0000   1.0000   1.0000   1.0000
     1.0000   1.0000   1.0000   1.0000   1.0000   1.0000   1.0000   1.0000
     1.0000   1.0000   1.0000   1.0000   1.0000   1.0000   1.0000   1.0000
     1.0000   1.0000   1.0000   1.0000   1.0000   1.0000   1.0000   1.0000
     1.0000   1.0000   1.0000   1.0000   1.0000   1.0000   1.0000   1.0000
     1.0000   1.0000   1.0000   1.0000   1.0000   1.0000   1.0000   1.0000
     1.0000   1.0000   1.0000   1.0000   1.0000   1.0000   1.0000   1.0000
     1.0000   1.0000   1.0000   1.0000   1.0000   1.0000   1.0000   1.0000
     1.0000   1.0000   1.0000   1.0000   1.0000   1.0000   1.0000   1.0000
     1.0000   1.0000   1.0000   1.0000   1.0000   1.0000   1.0000   1.0000
     1.0000   1.0000   1.0000   1.0000   1.0000   1.0000   1.0000   1.0000
     1.0000   1.0000   1.0000   1.0000   1.0000   1.0000   1.0000   1.0000
     1.0000   1.0000   1.0000   1.0000   1.0000   1.0000   1.0000   1.0000
     0.0000   0.0000   0.0000   0.0000   0.0000   0.0000   0.0000   0.0000
     0.0000   0.0000   0.0000   0.0000   0.0000   0.0000   0.0000   0.0000
     0.0000   0.0000   0.0000   0.0000   0.0000   0.0000   0.0000   0.0000
     0.0000   0.0000   0.0000   0.0000   0.0000   0.0000   0.0000   0.0000
     0.0000   0.0000   0.0000   0.0000   0.0000   0.0000   0.0000   0.0000
     0.0000   0.0000   0.0000   0.0000   0.0000   0.0000   0.0000   0.0000
     0.0000   0.0000   0.0000   0.0000   0.0000   0.0000   0.0000   0.0000
     0.0000   0.0000   0.0000   0.0000   0.0000   0.0000   0.0000   0.0000
     0.0000   0.0000   0.0000   0.0000   0.0000   0.0000   0.0000   0.0000
     0.0000   0.0000   0.0000   0.0000   0.0000   0.0000   0.0000   0.0000
     0.0000   0.0000   0.0000   0.0000   0.0000   0.0000   0.0000   0.0000
     0.0000   0.0000   0.0000   0.0000

          k = 0.0750 0.0000 0.0000 (449363 PWs)   bands (ev):

   -21.5829 -21.5709 -21.5676 -21.5289 -21.5280 -21.4608 -21.4605 -21.3658
   -21.3656 -21.2440 -21.2438 -21.0953 -21.0952 -20.9200 -20.9200 -20.7183
   -20.7183 -20.4905 -20.4904 -20.2367 -20.2367 -19.9575 -19.9575 -19.6532
   -19.6531 -19.3243 -19.3243 -18.9715 -18.9715 -18.5958 -18.5958 -18.1984
   -18.1984 -17.7815 -17.7815 -17.3493 -17.3492 -16.9121 -16.9117 -16.5063
   -16.5039 -16.2908 -15.2894 -15.0573 -15.0549 -14.5926 -14.5922 -14.0608
   -14.0607 -13.4977 -13.4976 -12.9147 -12.9147 -12.3179 -12.3178 -11.7116
   -11.7115 -11.1002 -11.1001 -10.4885 -10.4885  -9.8829  -9.8828  -9.6652
    -9.6506  -9.6474  -9.6011  -9.6003  -9.5206  -9.5204  -9.4087  -9.4085
    -9.2934  -9.2933  -9.2658  -9.2656  -9.0929  -9.0929  -9.0146  -9.0025
    -8.9992  -8.9604  -8.9595  -8.8936  -8.8936  -8.8924  -8.8921  -8.7980
    -8.7978  -8.7618  -8.7618  -8.6865  -8.6864  -8.6775  -8.6774  -8.5317
    -8.5316  -8.3615  -8.3615  -8.2884  -8.2883  -8.1682  -8.1682  -8.0732
    -8.0732  -8.0439  -8.0438  -7.9532  -7.9532  -7.7386  -7.7386  -7.7098
    -7.7098  -7.5802  -7.5802  -7.4651  -7.4650  -7.3853  -7.3853  -7.1981
    -7.1981  -7.1084  -7.1083  -7.0151  -7.0151  -6.9204  -6.9204  -6.6847
    -6.6846  -6.6372  -6.6372  -6.6237  -6.6237  -6.3557  -6.3557  -6.3189
    -6.3188  -6.2165  -6.2164  -6.0863  -6.0862  -6.0166  -6.0166  -5.8430
    -5.8430  -5.8006  -5.8005  -5.7835  -5.7833  -5.6425  -5.6424  -5.6302
    -5.6277  -5.5724  -5.4994  -5.4992  -5.4219  -5.4195  -5.3983  -5.3874
    -5.3873  -4.9956  -4.9954  -4.6559  -4.6553  -4.4157  -4.4126  -4.3249
    -0.4546  -0.3477  -0.3446  -0.0477  -0.0471   0.3869   0.3871   0.9088
     0.9090   1.2517   1.2941   1.2963   1.3285   1.3543   1.4599   1.4602
     1.4853   1.4854   1.5698   1.6079   1.7587   1.7589   1.9182   1.9779
     1.9980   2.0875   2.0948   2.0948   2.1089   2.1096   2.1605   2.1606
     2.1821   2.2953   2.2963   2.3312   2.3500   2.3982   2.4214   2.5226
     2.5326   2.6206   2.6207   2.6394   2.6397   2.7029   2.7035   2.7210
     2.7214   2.7222   2.7675   2.7676   2.8306   2.8816   2.9823   2.9880
     2.9971   3.0691   3.1399   3.1403   3.1413   3.2161   3.2163   3.2165
     3.2564   3.2891   3.2905   3.3400   3.3459   3.3460   3.4143   3.4687
     3.4688   3.4730   3.5145   3.5995   3.6003   3.6233   3.6297   3.7373
     3.7377   3.8186   3.8187   3.8740   3.8857   3.8963   3.8970   3.9390
     3.9884   4.0071   4.0283   4.0522

     occupation numbers 
     1.0000   1.0000   1.0000   1.0000   1.0000   1.0000   1.0000   1.0000
     1.0000   1.0000   1.0000   1.0000   1.0000   1.0000   1.0000   1.0000
     1.0000   1.0000   1.0000   1.0000   1.0000   1.0000   1.0000   1.0000
     1.0000   1.0000   1.0000   1.0000   1.0000   1.0000   1.0000   1.0000
     1.0000   1.0000   1.0000   1.0000   1.0000   1.0000   1.0000   1.0000
     1.0000   1.0000   1.0000   1.0000   1.0000   1.0000   1.0000   1.0000
     1.0000   1.0000   1.0000   1.0000   1.0000   1.0000   1.0000   1.0000
     1.0000   1.0000   1.0000   1.0000   1.0000   1.0000   1.0000   1.0000
     1.0000   1.0000   1.0000   1.0000   1.0000   1.0000   1.0000   1.0000
     1.0000   1.0000   1.0000   1.0000   1.0000   1.0000   1.0000   1.0000
     1.0000   1.0000   1.0000   1.0000   1.0000   1.0000   1.0000   1.0000
     1.0000   1.0000   1.0000   1.0000   1.0000   1.0000   1.0000   1.0000
     1.0000   1.0000   1.0000   1.0000   1.0000   1.0000   1.0000   1.0000
     1.0000   1.0000   1.0000   1.0000   1.0000   1.0000   1.0000   1.0000
     1.0000   1.0000   1.0000   1.0000   1.0000   1.0000   1.0000   1.0000
     1.0000   1.0000   1.0000   1.0000   1.0000   1.0000   1.0000   1.0000
     1.0000   1.0000   1.0000   1.0000   1.0000   1.0000   1.0000   1.0000
     1.0000   1.0000   1.0000   1.0000   1.0000   1.0000   1.0000   1.0000
     1.0000   1.0000   1.0000   1.0000   1.0000   1.0000   1.0000   1.0000
     1.0000   1.0000   1.0000   1.0000   1.0000   1.0000   1.0000   1.0000
     1.0000   1.0000   1.0000   1.0000   1.0000   1.0000   1.0000   1.0000
     0.0000   0.0000   0.0000   0.0000   0.0000   0.0000   0.0000   0.0000
     0.0000   0.0000   0.0000   0.0000   0.0000   0.0000   0.0000   0.0000
     0.0000   0.0000   0.0000   0.0000   0.0000   0.0000   0.0000   0.0000
     0.0000   0.0000   0.0000   0.0000   0.0000   0.0000   0.0000   0.0000
     0.0000   0.0000   0.0000   0.0000   0.0000   0.0000   0.0000   0.0000
     0.0000   0.0000   0.0000   0.0000   0.0000   0.0000   0.0000   0.0000
     0.0000   0.0000   0.0000   0.0000   0.0000   0.0000   0.0000   0.0000
     0.0000   0.0000   0.0000   0.0000   0.0000   0.0000   0.0000   0.0000
     0.0000   0.0000   0.0000   0.0000   0.0000   0.0000   0.0000   0.0000
     0.0000   0.0000   0.0000   0.0000   0.0000   0.0000   0.0000   0.0000
     0.0000   0.0000   0.0000   0.0000   0.0000   0.0000   0.0000   0.0000
     0.0000   0.0000   0.0000   0.0000

          k = 0.0833 0.0000 0.0000 (449455 PWs)   bands (ev):

   -21.5594 -21.5474 -21.5441 -21.5054 -21.5045 -21.4373 -21.4370 -21.3424
   -21.3422 -21.2205 -21.2204 -21.0719 -21.0718 -20.8967 -20.8966 -20.6951
   -20.6950 -20.4673 -20.4672 -20.2136 -20.2136 -19.9345 -19.9345 -19.6303
   -19.6303 -19.3016 -19.3016 -18.9490 -18.9490 -18.5735 -18.5735 -18.1764
   -18.1763 -17.7598 -17.7597 -17.3280 -17.3278 -16.8912 -16.8908 -16.4859
   -16.4835 -16.2708 -15.2697 -15.0381 -15.0357 -14.5743 -14.5739 -14.0436
   -14.0435 -13.4818 -13.4818 -12.9005 -12.9005 -12.3058 -12.3057 -11.7020
   -11.7019 -11.0938 -11.0937 -10.4861 -10.4861  -9.8855  -9.8854  -9.6372
    -9.6227  -9.6194  -9.5732  -9.5724  -9.4928  -9.4925  -9.3809  -9.3808
    -9.3019  -9.3018  -9.2382  -9.2380  -9.1093  -9.0972  -9.0939  -9.0655
    -9.0655  -9.0550  -9.0541  -8.9867  -8.9864  -8.8918  -8.8917  -8.8668
    -8.8668  -8.7719  -8.7719  -8.7708  -8.7706  -8.6633  -8.6633  -8.6242
    -8.6241  -8.4528  -8.4528  -8.2693  -8.2693  -8.2579  -8.2579  -8.0976
    -8.0975  -8.0408  -8.0408  -8.0183  -8.0183  -7.8053  -7.8053  -7.7013
    -7.7013  -7.6205  -7.6205  -7.5455  -7.5455  -7.3588  -7.3588  -7.2737
    -7.2737  -7.1632  -7.1630  -6.9896  -6.9895  -6.9887  -6.9887  -6.7532
    -6.7531  -6.6985  -6.6985  -6.5975  -6.5975  -6.4085  -6.4085  -6.3983
    -6.3982  -6.1903  -6.1903  -6.1317  -6.1316  -6.1026  -6.1026  -5.8840
    -5.8840  -5.8718  -5.8715  -5.7744  -5.7743  -5.7182  -5.7156  -5.6832
    -5.6832  -5.6598  -5.5436  -5.5433  -5.4703  -5.4677  -5.4485  -5.3611
    -5.3610  -4.9689  -4.9687  -4.6285  -4.6279  -4.3875  -4.3844  -4.2964
[...]
     1.0000   1.0000   1.0000   1.0000   1.0000   1.0000   1.0000   1.0000
     1.0000   1.0000   1.0000   1.0000   1.0000   1.0000   1.0000   1.0000
     1.0000   1.0000   1.0000   1.0000   1.0000   1.0000   1.0000   1.0000
     1.0000   1.0000   1.0000   1.0000   1.0000   1.0000   1.0000   1.0000
     1.0000   1.0000   1.0000   1.0000   1.0000   1.0000   1.0000   1.0000
     1.0000   1.0000   1.0000   1.0000   1.0000   1.0000   1.0000   1.0000
     1.0000   1.0000   1.0000   1.0000   1.0000   1.0000   1.0000   1.0000
     1.0000   1.0000   1.0000   1.0000   1.0000   1.0000   1.0000   1.0000
     1.0000   1.0000   1.0000   1.0000   1.0000   1.0000   1.0000   1.0000
     1.0000   1.0000   1.0000   1.0000   1.0000   1.0000   1.0000   1.0000
     1.0000   1.0000   1.0000   1.0000   1.0000   1.0000   1.0000   1.0000
     1.0000   1.0000   1.0000   1.0000   1.0000   1.0000   1.0000   1.0000
     1.0000   1.0000   1.0000   1.0000   1.0000   1.0000   1.0000   1.0000
     1.0000   1.0000   1.0000   1.0000   1.0000   1.0000   1.0000   1.0000
     1.0000   1.0000   1.0000   1.0000   1.0000   1.0000   1.0000   1.0000
     1.0000   1.0000   1.0000   1.0000   1.0000   1.0000   1.0000   1.0000
     1.0000   1.0000   1.0000   1.0000   1.0000   1.0000   1.0000   1.0000
     1.0000   1.0000   1.0000   1.0000   1.0000   1.0000   1.0000   1.0000
     1.0000   1.0000   1.0000   1.0000   1.0000   1.0000   1.0000   1.0000
     0.0000   0.0000   0.0000   0.0000   0.0000   0.0000   0.0000   0.0000
     0.0000   0.0000   0.0000   0.0000   0.0000   0.0000   0.0000   0.0000
     0.0000   0.0000   0.0000   0.0000   0.0000   0.0000   0.0000   0.0000
     0.0000   0.0000   0.0000   0.0000   0.0000   0.0000   0.0000   0.0000
     0.0000   0.0000   0.0000   0.0000   0.0000   0.0000   0.0000   0.0000
     0.0000   0.0000   0.0000   0.0000   0.0000   0.0000   0.0000   0.0000
     0.0000   0.0000   0.0000   0.0000   0.0000   0.0000   0.0000   0.0000
     0.0000   0.0000   0.0000   0.0000   0.0000   0.0000   0.0000   0.0000
     0.0000   0.0000   0.0000   0.0000   0.0000   0.0000   0.0000   0.0000
     0.0000   0.0000   0.0000   0.0000   0.0000   0.0000   0.0000   0.0000
     0.0000   0.0000   0.0000   0.0000   0.0000   0.0000   0.0000   0.0000
     0.0000   0.0000   0.0000   0.0000

          k = 0.4833 0.0000 0.0000 (447546 PWs)   bands (ev):

   -17.6431 -17.6321 -17.6288 -17.5932 -17.5923 -17.5305 -17.5302 -17.4436
   -17.4435 -17.3333 -17.3331 -17.2005 -17.2004 -17.0994 -17.0889 -17.0856
   -17.0517 -17.0508 -17.0475 -17.0475 -16.9921 -16.9917 -16.9103 -16.9102
   -16.8782 -16.8782 -16.8084 -16.8082 -16.7001 -16.7000 -16.6900 -16.6899
   -16.5630 -16.5630 -16.5300 -16.5299 -16.4454 -16.4453 -16.4045 -16.4045
   -16.3755 -16.3754 -15.3552 -15.3551 -15.3382 -15.3382 -15.2314 -15.2314
   -15.1783 -15.1783 -15.0187 -15.0187 -14.9276 -14.9276 -14.7542 -14.7542
   -14.6265 -14.6264 -14.4559 -14.4558 -14.2955 -14.2954 -14.1332 -14.1331
   -13.9475 -13.9474 -13.7930 -13.7930 -13.5955 -13.5953 -13.4426 -13.4425
   -13.2609 -13.2604 -13.0926 -13.0924 -12.9908 -12.9879 -12.8753 -12.7630
   -12.7624 -12.4994 -12.4964 -12.3874 -11.3371 -11.2197 -11.2168 -10.9338
   -10.9332 -10.8718 -10.7617 -10.7588 -10.5788 -10.5786 -10.4936 -10.4930
   -10.2035 -10.2035 -10.1630 -10.1629  -9.8336  -9.8336  -9.8187  -9.8186
    -9.4867  -9.4867  -9.4865  -9.4864  -9.1855  -9.1855  -9.1770  -9.1770
    -8.9304  -8.9304  -8.9189  -8.9188  -8.7351  -8.7351  -8.7248  -8.7248
    -8.6116  -8.6115  -8.6047  -8.6047  -8.5667  -8.5666  -5.1603  -5.1526
    -5.1494  -5.1242  -5.1233  -5.0798  -5.0795  -5.0201  -5.0199  -4.9474
    -4.9472  -4.8649  -4.8649  -4.7769  -4.7768  -4.6883  -4.6883  -4.6052
    -4.6052  -4.5849  -4.5811  -4.5779  -4.5646  -4.5636  -4.5407  -4.5404
    -4.5334  -4.5334  -4.5115  -4.5114  -4.4808  -4.4806  -4.4784  -4.4784
    -4.4531  -4.4531  -4.4438  -4.4437  -4.4338  -4.4338  -4.4294  -4.4293
    -0.4447  -0.4447  -0.4363  -0.4363  -0.4042  -0.4042  -0.3775  -0.3774
    -0.3208  -0.3207  -0.2719  -0.2719  -0.2041  -0.2041  -0.1264  -0.1264
    -0.0673  -0.0671   0.0493   0.0494   0.0753   0.0755   0.2082   0.2084
     0.2440   0.2440   0.3162   0.3169   0.3859   0.3891   0.4122   0.4448
     0.4450   0.6384   0.6385   0.8101   0.8103   0.9458   0.9465   1.0320
     1.0352   1.0639   5.3950   5.3950   5.4332   5.4332   5.4795   5.4795
     5.5923   5.5924   5.6828   5.6828   5.8651   5.8651   5.9960   5.9960
     6.2399   6.2400   6.4048   6.4049   6.7020   6.7021   6.7214   6.7560
     6.7585   6.7981   6.8152   6.8800   6.8801   6.9160   6.9163   7.0215
     7.0434   7.2306   7.2306   7.2484   7.2486   7.4002   7.4241   7.4428
     7.4566   7.4670   7.4993   7.5118   7.5136   7.5149   7.5318   7.5343
     7.5759   7.5767   7.5914   7.6342

     occupation numbers 
     1.0000   1.0000   1.0000   1.0000   1.0000   1.0000   1.0000   1.0000
     1.0000   1.0000   1.0000   1.0000   1.0000   1.0000   1.0000   1.0000
     1.0000   1.0000   1.0000   1.0000   1.0000   1.0000   1.0000   1.0000
     1.0000   1.0000   1.0000   1.0000   1.0000   1.0000   1.0000   1.0000
     1.0000   1.0000   1.0000   1.0000   1.0000   1.0000   1.0000   1.0000
     1.0000   1.0000   1.0000   1.0000   1.0000   1.0000   1.0000   1.0000
     1.0000   1.0000   1.0000   1.0000   1.0000   1.0000   1.0000   1.0000
     1.0000   1.0000   1.0000   1.0000   1.0000   1.0000   1.0000   1.0000
     1.0000   1.0000   1.0000   1.0000   1.0000   1.0000   1.0000   1.0000
     1.0000   1.0000   1.0000   1.0000   1.0000   1.0000   1.0000   1.0000
     1.0000   1.0000   1.0000   1.0000   1.0000   1.0000   1.0000   1.0000
     1.0000   1.0000   1.0000   1.0000   1.0000   1.0000   1.0000   1.0000
     1.0000   1.0000   1.0000   1.0000   1.0000   1.0000   1.0000   1.0000
     1.0000   1.0000   1.0000   1.0000   1.0000   1.0000   1.0000   1.0000
     1.0000   1.0000   1.0000   1.0000   1.0000   1.0000   1.0000   1.0000
     1.0000   1.0000   1.0000   1.0000   1.0000   1.0000   1.0000   1.0000
     1.0000   1.0000   1.0000   1.0000   1.0000   1.0000   1.0000   1.0000
     1.0000   1.0000   1.0000   1.0000   1.0000   1.0000   1.0000   1.0000
     1.0000   1.0000   1.0000   1.0000   1.0000   1.0000   1.0000   1.0000
     1.0000   1.0000   1.0000   1.0000   1.0000   1.0000   1.0000   1.0000
     1.0000   1.0000   1.0000   1.0000   1.0000   1.0000   1.0000   1.0000
     0.0000   0.0000   0.0000   0.0000   0.0000   0.0000   0.0000   0.0000
     0.0000   0.0000   0.0000   0.0000   0.0000   0.0000   0.0000   0.0000
     0.0000   0.0000   0.0000   0.0000   0.0000   0.0000   0.0000   0.0000
     0.0000   0.0000   0.0000   0.0000   0.0000   0.0000   0.0000   0.0000
     0.0000   0.0000   0.0000   0.0000   0.0000   0.0000   0.0000   0.0000
     0.0000   0.0000   0.0000   0.0000   0.0000   0.0000   0.0000   0.0000
     0.0000   0.0000   0.0000   0.0000   0.0000   0.0000   0.0000   0.0000
     0.0000   0.0000   0.0000   0.0000   0.0000   0.0000   0.0000   0.0000
     0.0000   0.0000   0.0000   0.0000   0.0000   0.0000   0.0000   0.0000
     0.0000   0.0000   0.0000   0.0000   0.0000   0.0000   0.0000   0.0000
     0.0000   0.0000   0.0000   0.0000   0.0000   0.0000   0.0000   0.0000
     0.0000   0.0000   0.0000   0.0000

          k = 0.4917 0.0000 0.0000 (447550 PWs)   bands (ev):

   -17.5094 -17.4985 -17.4952 -17.4599 -17.4590 -17.3978 -17.3975 -17.3119
   -17.3117 -17.2375 -17.2268 -17.2235 -17.2029 -17.2028 -17.1890 -17.1881
   -17.1284 -17.1281 -17.0725 -17.0724 -17.0450 -17.0448 -16.9401 -16.9399
   -16.9233 -16.9233 -16.8165 -16.8164 -16.7609 -16.7609 -16.6795 -16.6795
   -16.5965 -16.5965 -16.5410 -16.5409 -16.4559 -16.4559 -16.4270 -16.4270
   -16.3875 -16.3875 -15.3783 -15.3783 -15.3110 -15.3110 -15.2934 -15.2934
   -15.1266 -15.1266 -15.0905 -15.0905 -14.8749 -14.8749 -14.8199 -14.8199
   -14.5825 -14.5825 -14.5099 -14.5098 -14.2625 -14.2624 -14.1749 -14.1748
   -13.9233 -13.9232 -13.8253 -13.8253 -13.5727 -13.5726 -13.4733 -13.4731
   -13.2217 -13.2215 -13.1396 -13.1390 -12.8905 -12.8899 -12.8708 -12.8679
   -12.7560 -12.6250 -12.6221 -12.5120 -11.2234 -11.1077 -11.1048 -10.9907
   -10.8786 -10.8757 -10.8260 -10.8254 -10.6058 -10.6052 -10.4767 -10.4765
   -10.2687 -10.2686 -10.1087 -10.1087  -9.9162  -9.9161  -9.7478  -9.7478
    -9.5743  -9.5743  -9.4117  -9.4116  -9.2611  -9.2610  -9.1152  -9.1151
    -8.9918  -8.9918  -8.8723  -8.8722  -8.7803  -8.7802  -8.6953  -8.6953
    -8.6384  -8.6384  -8.5941  -8.5941  -8.5749  -8.5749  -5.0175  -5.0106
    -5.0074  -4.9846  -4.9837  -4.9443  -4.9440  -4.8908  -4.8906  -4.8266
    -4.8264  -4.7553  -4.7553  -4.7296  -4.7246  -4.7214  -4.7045  -4.7036
    -4.6817  -4.6817  -4.6744  -4.6741  -4.6360  -4.6358  -4.6112  -4.6111
    -4.5926  -4.5924  -4.5497  -4.5497  -4.5485  -4.5485  -4.5094  -4.5093
    -4.5029  -4.5029  -4.4812  -4.4811  -4.4746  -4.4746  -4.4680  -4.4680
    -0.4438  -0.4438  -0.4227  -0.4227  -0.4138  -0.4138  -0.3532  -0.3532
    -0.3353  -0.3352  -0.2436  -0.2435  -0.2133  -0.2133  -0.1042  -0.1042
    -0.0575  -0.0575   0.0515   0.0517   0.1207   0.1207   0.2092   0.2093
     0.3082   0.3084   0.3535   0.3537   0.4697   0.4704   0.4912   0.4913
     0.5443   0.5475   0.5722   0.6548   0.6550   0.7847   0.7854   0.8675
     0.8707   0.8982   5.3975   5.3976   5.4167   5.4167   5.5009   5.5010
     5.5574   5.5574   5.7221   5.7221   5.8133   5.8133   6.0514   6.0514
     6.1735   6.1735   6.4745   6.4746   6.6231   6.6233   6.9123   6.9464
     6.9489   6.9665   6.9666   6.9890   7.0056   7.1059   7.1062   7.1411
     7.1412   7.2072   7.2271   7.3014   7.3346   7.3370   7.3785   7.3939
     7.4330   7.4332   7.4929   7.4931   7.5496   7.5667   7.5690   7.5807
     7.5900   7.6024   7.6318   7.6809

     occupation numbers 
     1.0000   1.0000   1.0000   1.0000   1.0000   1.0000   1.0000   1.0000
     1.0000   1.0000   1.0000   1.0000   1.0000   1.0000   1.0000   1.0000
     1.0000   1.0000   1.0000   1.0000   1.0000   1.0000   1.0000   1.0000
     1.0000   1.0000   1.0000   1.0000   1.0000   1.0000   1.0000   1.0000
     1.0000   1.0000   1.0000   1.0000   1.0000   1.0000   1.0000   1.0000
     1.0000   1.0000   1.0000   1.0000   1.0000   1.0000   1.0000   1.0000
     1.0000   1.0000   1.0000   1.0000   1.0000   1.0000   1.0000   1.0000
     1.0000   1.0000   1.0000   1.0000   1.0000   1.0000   1.0000   1.0000
     1.0000   1.0000   1.0000   1.0000   1.0000   1.0000   1.0000   1.0000
     1.0000   1.0000   1.0000   1.0000   1.0000   1.0000   1.0000   1.0000
     1.0000   1.0000   1.0000   1.0000   1.0000   1.0000   1.0000   1.0000
     1.0000   1.0000   1.0000   1.0000   1.0000   1.0000   1.0000   1.0000
     1.0000   1.0000   1.0000   1.0000   1.0000   1.0000   1.0000   1.0000
     1.0000   1.0000   1.0000   1.0000   1.0000   1.0000   1.0000   1.0000
     1.0000   1.0000   1.0000   1.0000   1.0000   1.0000   1.0000   1.0000
     1.0000   1.0000   1.0000   1.0000   1.0000   1.0000   1.0000   1.0000
     1.0000   1.0000   1.0000   1.0000   1.0000   1.0000   1.0000   1.0000
     1.0000   1.0000   1.0000   1.0000   1.0000   1.0000   1.0000   1.0000
     1.0000   1.0000   1.0000   1.0000   1.0000   1.0000   1.0000   1.0000
     1.0000   1.0000   1.0000   1.0000   1.0000   1.0000   1.0000   1.0000
     1.0000   1.0000   1.0000   1.0000   1.0000   1.0000   1.0000   1.0000
     0.0000   0.0000   0.0000   0.0000   0.0000   0.0000   0.0000   0.0000
     0.0000   0.0000   0.0000   0.0000   0.0000   0.0000   0.0000   0.0000
     0.0000   0.0000   0.0000   0.0000   0.0000   0.0000   0.0000   0.0000
     0.0000   0.0000   0.0000   0.0000   0.0000   0.0000   0.0000   0.0000
     0.0000   0.0000   0.0000   0.0000   0.0000   0.0000   0.0000   0.0000
     0.0000   0.0000   0.0000   0.0000   0.0000   0.0000   0.0000   0.0000
     0.0000   0.0000   0.0000   0.0000   0.0000   0.0000   0.0000   0.0000
     0.0000   0.0000   0.0000   0.0000   0.0000   0.0000   0.0000   0.0000
     0.0000   0.0000   0.0000   0.0000   0.0000   0.0000   0.0000   0.0000
     0.0000   0.0000   0.0000   0.0000   0.0000   0.0000   0.0000   0.0000
     0.0000   0.0000   0.0000   0.0000   0.0000   0.0000   0.0000   0.0000
     0.0000   0.0000   0.0000   0.0000

          k = 0.5000 0.0000 0.0000 (447590 PWs)   bands (ev):

   -17.3758 -17.3726 -17.3650 -17.3618 -17.3617 -17.3585 -17.3268 -17.3259
   -17.3236 -17.3227 -17.2653 -17.2650 -17.2621 -17.2618 -17.1805 -17.1803
   -17.1773 -17.1772 -17.0733 -17.0731 -17.0702 -17.0700 -16.9458 -16.9457
   -16.9427 -16.9427 -16.8017 -16.8017 -16.7988 -16.7988 -16.6489 -16.6489
   -16.6463 -16.6462 -16.5046 -16.5045 -16.5024 -16.5024 -16.4061 -16.4061
   -16.4052 -16.4052 -15.3629 -15.3629 -15.3620 -15.3620 -15.2214 -15.2214
   -15.2192 -15.2192 -14.9894 -14.9894 -14.9865 -14.9865 -14.7058 -14.7058
   -14.7027 -14.7026 -14.3899 -14.3899 -14.3866 -14.3865 -14.0524 -14.0524
   -14.0489 -14.0488 -13.7022 -13.7021 -13.6985 -13.6984 -13.3506 -13.3504
   -13.3467 -13.3465 -13.0181 -13.0175 -13.0140 -13.0134 -12.7510 -12.7481
   -12.7466 -12.7437 -12.6372 -12.6326 -11.1087 -11.1071 -10.9949 -10.9932
   -10.9920 -10.9903 -10.7176 -10.7170 -10.7156 -10.7151 -10.3743 -10.3742
   -10.3723 -10.3722 -10.0139 -10.0139 -10.0119 -10.0119  -9.6623  -9.6623
    -9.6604  -9.6604  -9.3373  -9.3373  -9.3356  -9.3356  -9.0541  -9.0541
    -9.0527  -9.0527  -8.8266  -8.8265  -8.8255  -8.8254  -8.6669  -8.6669
    -8.6660  -8.6660  -8.5842  -8.5841  -8.5839  -8.5839  -4.8756  -4.8721
    -4.8696  -4.8664  -4.8661  -4.8629  -4.8463  -4.8454  -4.8429  -4.8420
    -4.8107  -4.8104  -4.8074  -4.8071  -4.7641  -4.7640  -4.7610  -4.7609
    -4.7095  -4.7093  -4.7067  -4.7065  -4.6509  -4.6508  -4.6483  -4.6483
    -4.5933  -4.5932  -4.5912  -4.5911  -4.5425  -4.5424  -4.5409  -4.5408
    -4.5044  -4.5043  -4.5033  -4.5032  -4.4833  -4.4833  -4.4830  -4.4829
    -0.4366  -0.4366  -0.4362  -0.4362  -0.3863  -0.3863  -0.3851  -0.3850
    -0.2902  -0.2902  -0.2883  -0.2882  -0.1568  -0.1567  -0.1542  -0.1541
     0.0028   0.0028   0.0059   0.0060   0.1751   0.1752   0.1787   0.1789
     0.3459   0.3461   0.3499   0.3501   0.5004   0.5006   0.5047   0.5049
     0.6237   0.6244   0.6282   0.6289   0.7025   0.7057   0.7072   0.7104
     0.7319   0.7366   5.4046   5.4046   5.4049   5.4049   5.5264   5.5264
     5.5274   5.5275   5.7648   5.7649   5.7664   5.7664   6.1096   6.1096
     6.1116   6.1117   6.5460   6.5462   6.5486   6.5487   7.0518   7.0518
     7.0546   7.0547   7.1054   7.1058   7.1391   7.1395   7.1416   7.1420
     7.1823   7.1827   7.1984   7.1988   7.2981   7.2983   7.2986   7.2988
     7.3910   7.3920   7.4078   7.4088   7.6223   7.6225   7.6227   7.6229
     7.6546   7.6569   7.6708   7.6731

     occupation numbers 
     1.0000   1.0000   1.0000   1.0000   1.0000   1.0000   1.0000   1.0000
     1.0000   1.0000   1.0000   1.0000   1.0000   1.0000   1.0000   1.0000
     1.0000   1.0000   1.0000   1.0000   1.0000   1.0000   1.0000   1.0000
     1.0000   1.0000   1.0000   1.0000   1.0000   1.0000   1.0000   1.0000
     1.0000   1.0000   1.0000   1.0000   1.0000   1.0000   1.0000   1.0000
     1.0000   1.0000   1.0000   1.0000   1.0000   1.0000   1.0000   1.0000
     1.0000   1.0000   1.0000   1.0000   1.0000   1.0000   1.0000   1.0000
     1.0000   1.0000   1.0000   1.0000   1.0000   1.0000   1.0000   1.0000
     1.0000   1.0000   1.0000   1.0000   1.0000   1.0000   1.0000   1.0000
     1.0000   1.0000   1.0000   1.0000   1.0000   1.0000   1.0000   1.0000
     1.0000   1.0000   1.0000   1.0000   1.0000   1.0000   1.0000   1.0000
     1.0000   1.0000   1.0000   1.0000   1.0000   1.0000   1.0000   1.0000
     1.0000   1.0000   1.0000   1.0000   1.0000   1.0000   1.0000   1.0000
     1.0000   1.0000   1.0000   1.0000   1.0000   1.0000   1.0000   1.0000
     1.0000   1.0000   1.0000   1.0000   1.0000   1.0000   1.0000   1.0000
     1.0000   1.0000   1.0000   1.0000   1.0000   1.0000   1.0000   1.0000
     1.0000   1.0000   1.0000   1.0000   1.0000   1.0000   1.0000   1.0000
     1.0000   1.0000   1.0000   1.0000   1.0000   1.0000   1.0000   1.0000
     1.0000   1.0000   1.0000   1.0000   1.0000   1.0000   1.0000   1.0000
     1.0000   1.0000   1.0000   1.0000   1.0000   1.0000   1.0000   1.0000
     1.0000   1.0000   1.0000   1.0000   1.0000   1.0000   1.0000   1.0000
     0.0000   0.0000   0.0000   0.0000   0.0000   0.0000   0.0000   0.0000
     0.0000   0.0000   0.0000   0.0000   0.0000   0.0000   0.0000   0.0000
     0.0000   0.0000   0.0000   0.0000   0.0000   0.0000   0.0000   0.0000
     0.0000   0.0000   0.0000   0.0000   0.0000   0.0000   0.0000   0.0000
     0.0000   0.0000   0.0000   0.0000   0.0000   0.0000   0.0000   0.0000
     0.0000   0.0000   0.0000   0.0000   0.0000   0.0000   0.0000   0.0000
     0.0000   0.0000   0.0000   0.0000   0.0000   0.0000   0.0000   0.0000
     0.0000   0.0000   0.0000   0.0000   0.0000   0.0000   0.0000   0.0000
     0.0000   0.0000   0.0000   0.0000   0.0000   0.0000   0.0000   0.0000
     0.0000   0.0000   0.0000   0.0000   0.0000   0.0000   0.0000   0.0000
     0.0000   0.0000   0.0000   0.0000   0.0000   0.0000   0.0000   0.0000
     0.0000   0.0000   0.0000   0.0000

     the Fermi energy is    -2.0990 ev

     Writing output data file CNT_21_21.save/
 
     init_run     :     12.99s CPU     11.46s WALL (       1 calls)
     electrons    :  13907.32s CPU   4071.08s WALL (       1 calls)

     Called by init_run:
     wfcinit      :      0.38s CPU      0.18s WALL (       1 calls)
     wfcinit:atom :      5.13s CPU      1.79s WALL (       8 calls)
     wfcinit:wfcr :    321.71s CPU     86.01s WALL (       8 calls)
     potinit      :      6.25s CPU      4.68s WALL (       1 calls)
     hinit0       :      1.57s CPU      1.55s WALL (       1 calls)

     Called by electrons:
     c_bands      :  13907.21s CPU   4070.72s WALL (       1 calls)
     v_of_rho     :      3.18s CPU      1.60s WALL (       1 calls)
     v_h          :      0.54s CPU      0.19s WALL (       1 calls)
     v_xc         :      2.61s CPU      1.40s WALL (       1 calls)

     Called by c_bands:
     init_us_2    :      0.67s CPU      0.18s WALL (       8 calls)
     cegterg      :  13369.58s CPU   3768.03s WALL (      44 calls)

     Called by sum_band:

     Called by *egterg:
     h_psi        :   4704.00s CPU   1233.34s WALL (     885 calls)
     g_psi        :     11.49s CPU      2.90s WALL (     833 calls)
     cdiaghg      :   3964.89s CPU   1267.14s WALL (     841 calls)
     cegterg:over :   2197.43s CPU    597.98s WALL (     833 calls)
     cegterg:upda :   1723.30s CPU    460.99s WALL (     833 calls)
     cegterg:last :    873.78s CPU    230.62s WALL (      68 calls)
     cdiaghg:chol :    322.29s CPU     97.52s WALL (     841 calls)
     cdiaghg:inve :    187.03s CPU     61.39s WALL (     841 calls)
     cdiaghg:para :    158.13s CPU     63.85s WALL (    1682 calls)

     Called by h_psi:
     h_psi:pot    :   4683.59s CPU   1225.91s WALL (     885 calls)
     h_psi:calbec :    197.89s CPU     52.68s WALL (     885 calls)
     vloc_psi     :   4343.09s CPU   1135.48s WALL (     885 calls)
     add_vuspsi   :    142.29s CPU     37.65s WALL (     885 calls)

     General routines
     calbec       :    197.72s CPU     52.63s WALL (     885 calls)
     fft          :      4.09s CPU      3.03s WALL (      11 calls)
     fftw         :   3921.62s CPU   1027.88s WALL (  104334 calls)
     davcio       :      6.82s CPU      3.92s WALL (      16 calls)
 
     Parallel routines
     fft_scatt_xy :    667.51s CPU    169.63s WALL (  104345 calls)
     fft_scatt_yz :   1229.08s CPU    344.34s WALL (  104345 calls)
 
     PWSCF        :     3h52m CPU       52h 1m WALL

       9h
 
   This run was terminated on:  17:59: 0  30Jan2019            

=------------------------------------------------------------------------------=
   JOB DONE.
=------------------------------------------------------------------------------=
