
     Program PWSCF v.6.0 (svn rev. 13079) starts on 21Mar2019 at  9:23:58 

     This program is part of the open-source Quantum ESPRESSO suite
     for quantum simulation of materials; please cite
         "P. Giannozzi et al., J. Phys.:Condens. Matter 21 395502 (2009);
          URL http://www.quantum-espresso.org", 
     in publications or presentations arising from this work. More details at
     http://www.quantum-espresso.org/quote

     Parallel version (MPI), running on     1 processors
     Waiting for input...
     Reading input from standard input

     Current dimensions of program PWSCF are:
     Max number of different atomic species (ntypx) = 10
     Max number of k-points (npk) =  40000
     Max angular momentum in pseudopotentials (lmaxx) =  3

     Atomic positions and unit cell read from directory:
     ./ZGNR6.save/

               file C.pbe-n-kjpaw_psl.0.1.UPF: wavefunction(s)  2P renormalized
               file H.pbe-kjpaw_psl.0.1.UPF: wavefunction(s)  1S renormalized

     Subspace diagonalization in iterative solution of the eigenvalue problem:
     a serial algorithm will be used


     G-vector sticks info
     --------------------
     sticks:   dense  smooth     PW     G-vecs:    dense   smooth      PW
     Sum        5025    2251    691               382547   113595   19257



     bravais-lattice index     =            0
     lattice parameter (alat)  =       4.6487  a.u.
     unit-cell volume          =    3320.1806 (a.u.)^3
     number of atoms/cell      =           14
     number of atomic types    =            2
     number of electrons       =        50.00
     number of Kohn-Sham states=           48
     kinetic-energy cutoff     =      40.0000  Ry
     charge density cutoff     =     360.0000  Ry
     Exchange-correlation      =  SLA  PW   PBX  PBC ( 1  4  3  4 0 0)

     celldm(1)=   4.648726  celldm(2)=   0.000000  celldm(3)=   0.000000
     celldm(4)=   0.000000  celldm(5)=   0.000000  celldm(6)=   0.000000

     crystal axes: (cart. coord. in units of alat)
               a(1) = (   1.000000   0.000000   0.000000 )  
               a(2) = (   0.000000   8.130081   0.000000 )  
               a(3) = (   0.000000   0.000000   4.065041 )  

     reciprocal axes: (cart. coord. in units 2 pi/alat)
               b(1) = (  1.000000  0.000000  0.000000 )  
               b(2) = (  0.000000  0.123000  0.000000 )  
               b(3) = (  0.000000  0.000000  0.246000 )  


     PseudoPot. # 1 for  C read from file:
     /mnt/hgfs/Linux_NTNU/QE_docs/PSEUDO_POTENTIALS/C.pbe-n-kjpaw_psl.0.1.UPF
     MD5 check sum: bf2aebf1cd97aced799cfc3ffd9ff9ea
     Pseudo is Projector augmented-wave + core cor, Zval =  4.0
     Generated using "atomic" code by A. Dal Corso  v.5.0.2 svn rev. 9415
     Shape of augmentation charge: BESSEL
     Using radial grid of 1073 points,  4 beta functions with: 
                l(1) =   0
                l(2) =   0
                l(3) =   1
                l(4) =   1
     Q(r) pseudized with 0 coefficients 


     PseudoPot. # 2 for  H read from file:
     /mnt/hgfs/Linux_NTNU/QE_docs/PSEUDO_POTENTIALS/H.pbe-kjpaw_psl.0.1.UPF
     MD5 check sum: fbb168fef676c0aaadbafd73f5b1efa8
     Pseudo is Projector augmented-wave, Zval =  1.0
     Generated using "atomic" code by A. Dal Corso  v.5.0.2 svn rev. 9415
     Shape of augmentation charge: PSQ
     Using radial grid of  929 points,  2 beta functions with: 
                l(1) =   0
                l(2) =   0
     Q(r) pseudized with 0 coefficients 


     atomic species   valence    mass     pseudopotential
        C              4.00    12.01100      C( 1.00)
        H              1.00     1.00000      H( 1.00)

      2 Sym. Ops. (no inversion) found



   Cartesian axes

     site n.     atom                  positions (alat units)
         1           C   tau(   1) = (   0.0000000   0.0000000   0.0000000  )
         2           C   tau(   2) = (   0.4999008   0.2886179   0.0000000  )
         3           C   tau(   3) = (   0.0000000  -0.5772358   0.0000000  )
         4           C   tau(   4) = (   0.4999008  -0.8658537   0.0000000  )
         5           C   tau(   5) = (   0.0000000  -1.7317073   0.0000000  )
         6           C   tau(   6) = (   0.4999008  -1.4430894   0.0000000  )
         7           C   tau(   7) = (   0.0000000  -2.3089431   0.0000000  )
         8           C   tau(   8) = (   0.4999008  -2.5975610   0.0000000  )
         9           C   tau(   9) = (   0.0000000  -3.4634146   0.0000000  )
        10           C   tau(  10) = (   0.4999008  -3.1747967   0.0000000  )
        11           C   tau(  11) = (   0.0000000  -4.0406504   0.0000000  )
        12           C   tau(  12) = (   0.4999008  -4.3292683   0.0000000  )
        13           H   tau(  13) = (   0.4999008   0.7357724   0.0000000  )
        14           H   tau(  14) = (   0.4999008  -4.7764228   0.0000000  )

     number of k points=    31  gaussian smearing, width (Ry)=  0.0300
                       cart. coord. in units 2pi/alat
        k(    1) = (   0.0000000   0.0000000   0.0000000), wk =   0.0645161
        k(    2) = (   0.0166667   0.0000000   0.0000000), wk =   0.0645161
        k(    3) = (   0.0333333   0.0000000   0.0000000), wk =   0.0645161
        k(    4) = (   0.0500000   0.0000000   0.0000000), wk =   0.0645161
        k(    5) = (   0.0666667   0.0000000   0.0000000), wk =   0.0645161
        k(    6) = (   0.0833333   0.0000000   0.0000000), wk =   0.0645161
        k(    7) = (   0.1000000   0.0000000   0.0000000), wk =   0.0645161
        k(    8) = (   0.1166667   0.0000000   0.0000000), wk =   0.0645161
        k(    9) = (   0.1333333   0.0000000   0.0000000), wk =   0.0645161
        k(   10) = (   0.1500000   0.0000000   0.0000000), wk =   0.0645161
        k(   11) = (   0.1666667   0.0000000   0.0000000), wk =   0.0645161
        k(   12) = (   0.1833333   0.0000000   0.0000000), wk =   0.0645161
        k(   13) = (   0.2000000   0.0000000   0.0000000), wk =   0.0645161
        k(   14) = (   0.2166667   0.0000000   0.0000000), wk =   0.0645161
        k(   15) = (   0.2333333   0.0000000   0.0000000), wk =   0.0645161
        k(   16) = (   0.2500000   0.0000000   0.0000000), wk =   0.0645161
        k(   17) = (   0.2666667   0.0000000   0.0000000), wk =   0.0645161
        k(   18) = (   0.2833333   0.0000000   0.0000000), wk =   0.0645161
        k(   19) = (   0.3000000   0.0000000   0.0000000), wk =   0.0645161
        k(   20) = (   0.3166667   0.0000000   0.0000000), wk =   0.0645161
        k(   21) = (   0.3333333   0.0000000   0.0000000), wk =   0.0645161
        k(   22) = (   0.3500000   0.0000000   0.0000000), wk =   0.0645161
        k(   23) = (   0.3666667   0.0000000   0.0000000), wk =   0.0645161
        k(   24) = (   0.3833333   0.0000000   0.0000000), wk =   0.0645161
        k(   25) = (   0.4000000   0.0000000   0.0000000), wk =   0.0645161
        k(   26) = (   0.4166667   0.0000000   0.0000000), wk =   0.0645161
        k(   27) = (   0.4333333   0.0000000   0.0000000), wk =   0.0645161
        k(   28) = (   0.4500000   0.0000000   0.0000000), wk =   0.0645161
        k(   29) = (   0.4666667   0.0000000   0.0000000), wk =   0.0645161
        k(   30) = (   0.4833333   0.0000000   0.0000000), wk =   0.0645161
        k(   31) = (   0.5000000   0.0000000   0.0000000), wk =   0.0645161

     Dense  grid:   382547 G-vectors     FFT dimensions: (  30, 240, 120)

     Smooth grid:   113595 G-vectors     FFT dimensions: (  20, 160,  80)

     Estimated max dynamical RAM per process >     226.85Mb

     The potential is recalculated from file :
     ./ZGNR6.save/charge-density.dat


     negative rho (up, down):  1.442E-05 0.000E+00
     Starting wfc are   50 randomized atomic wfcs
     Checking if some PAW data can be deallocated... 

     Band Structure Calculation
     Davidson diagonalization with overlap
     c_bands:  1 eigenvalues not converged
     c_bands:  1 eigenvalues not converged
     c_bands:  1 eigenvalues not converged
     c_bands:  1 eigenvalues not converged
     c_bands:  2 eigenvalues not converged

     ethr =  2.00E-09,  avg # of iterations = 61.9

     total cpu time spent up to now is      742.0 secs

     End of band structure calculation

          k = 0.0000 0.0000 0.0000 ( 14235 PWs)   bands (ev):

   -20.9856 -20.5328 -19.8228 -18.8648 -17.6968 -16.4668 -14.1693 -12.6010
   -10.8076  -9.0454  -8.9967  -8.5322  -7.8533  -7.7373  -7.4197  -7.3224
    -6.7835  -6.6964  -6.0223  -5.9269  -5.5036  -5.2818  -4.9685  -4.7739
    -4.4109   0.6139   1.3743   1.7098   1.8574   1.8964   2.5800   2.7106
     2.7174   3.3365   3.4067   3.4138   3.6500   4.1349   4.2345   4.4217
     4.5678   4.7267   4.8736   5.2102   5.5150   5.7879   6.0130   6.0731

          k = 0.0167 0.0000 0.0000 ( 14231 PWs)   bands (ev):

   -20.9807 -20.5279 -19.8180 -18.8600 -17.6921 -16.4624 -14.1652 -12.5975
   -10.8050  -9.0395  -8.9959  -8.5264  -7.8756  -7.7315  -7.4414  -7.3258
    -6.8027  -6.6906  -6.0578  -5.9167  -5.4979  -5.3057  -4.9735  -4.7942
    -4.4050   0.6129   1.3805   1.7163   1.8575   1.9030   2.5854   2.7172
     2.7228   3.3429   3.4133   3.4191   3.6563   4.1345   4.2401   4.4284
     4.5744   4.7335   4.8801   5.2171   5.5219   5.7978   6.0398   6.0736

          k = 0.0333 0.0000 0.0000 ( 14257 PWs)   bands (ev):

   -20.9659 -20.5132 -19.8034 -18.8457 -17.6781 -16.4491 -14.1530 -12.5869
   -10.7973  -9.0218  -8.9934  -8.5088  -7.9418  -7.7141  -7.5060  -7.3373
    -6.8584  -6.6734  -6.1428  -5.9072  -5.4806  -5.3751  -4.9902  -4.8544
    -4.3873   0.6098   1.3988   1.7360   1.8577   1.9225   2.6017   2.7370
     2.7387   3.3623   3.4330   3.4351   3.6752   4.1332   4.2572   4.4482
     4.5945   4.7536   4.8996   5.2376   5.5427   5.8240   6.0736   6.1223

          k = 0.0500 0.0000 0.0000 ( 14265 PWs)   bands (ev):

   -20.9412 -20.4886 -19.7790 -18.8218 -17.6548 -16.4270 -14.1326 -12.5693
   -10.7845  -8.9923  -8.9899  -8.4795  -8.0499  -7.6851  -7.6112  -7.3618
    -6.9442  -6.6448  -6.2633  -5.9106  -5.4850  -5.4520  -5.0213  -4.9524
    -4.3578   0.6043   1.4292   1.7687   1.8573   1.9549   2.6288   2.7651
     2.7700   3.3944   3.4618   3.4658   3.7066   4.1307   4.2856   4.4812
     4.6279   4.7871   4.9318   5.2715   5.5771   5.8599   6.0691   6.2622

          k = 0.0667 0.0000 0.0000 ( 14235 PWs)   bands (ev):

   -20.9067 -20.4543 -19.7450 -18.7882 -17.6222 -16.3960 -14.1043 -12.5448
   -10.7672  -8.9863  -8.9510  -8.4386  -8.1969  -7.7534  -7.6447  -7.4115
    -7.0457  -6.6048  -6.4159  -5.9280  -5.6297  -5.4119  -5.0847  -5.0690
    -4.3166   0.5958   1.4718   1.8145   1.8555   2.0003   2.6663   2.8012
     2.8161   3.4392   3.4992   3.5116   3.7504   4.1263   4.3253   4.5274
     4.6748   4.8340   4.9764   5.3187   5.6249   5.9010   6.0537   6.3949

          k = 0.0833 0.0000 0.0000 ( 14247 PWs)   bands (ev):

   -20.8624 -20.4101 -19.7012 -18.7452 -17.5804 -16.3561 -14.0681 -12.5139
   -10.7457  -8.9846  -8.8980  -8.3860  -8.3788  -7.9276  -7.5927  -7.5075
    -7.1388  -6.5974  -6.5534  -5.9600  -5.8038  -5.3605  -5.2462  -5.1338
    -4.2637   0.5833   1.5263   1.8509   1.8735   2.0585   2.7142   2.8462
     2.8752   3.4963   3.5474   3.5705   3.8064   4.1197   4.3764   4.5867
     4.7351   4.8941   5.0331   5.3788   5.6860   5.9449   6.0213   6.4256

          k = 0.1000 0.0000 0.0000 ( 14203 PWs)   bands (ev):

   -20.8081 -20.3561 -19.6478 -18.6926 -17.5292 -16.3075 -14.0244 -12.4767
   -10.7209  -8.9885  -8.8333  -8.5914  -8.3218  -8.1272  -7.6629  -7.5294
    -7.2083  -6.8038  -6.4908  -6.0093  -6.0012  -5.4297  -5.2978  -5.2155
    -4.1991   0.5658   1.5927   1.8418   1.9457   2.1293   2.7720   2.8986
     2.9475   3.5651   3.6063   3.6423   3.8745   4.1109   4.4386   4.6592
     4.8088   4.9675   5.1014   5.4516   5.7603   5.9684   5.9911   6.4727

          k = 0.1167 0.0000 0.0000 ( 14183 PWs)   bands (ev):

   -20.7441 -20.2924 -19.5847 -18.6305 -17.4689 -16.2500 -13.9734 -12.4339
   -10.6941  -9.0055  -8.8299  -8.7569  -8.3419  -8.2462  -7.8667  -7.4547
    -7.2644  -7.0298  -6.4170  -6.2139  -6.0837  -5.6228  -5.3138  -5.2240
    -4.1229   0.5420   1.6709   1.8262   2.0310   2.2125   2.8397   2.9558
     3.0327   3.6444   3.6759   3.7269   3.9548   4.1013   4.5116   4.7448
     4.8959   5.0541   5.1810   5.5370   5.8477   5.8939   6.0403   6.5379

          k = 0.1333 0.0000 0.0000 ( 14195 PWs)   bands (ev):

   -20.6703 -20.2190 -19.5119 -18.5590 -17.3993 -16.1837 -13.9156 -12.3862
   -10.6672  -9.0895  -9.0535  -8.6690  -8.5529  -8.1591  -8.1018  -7.3688
    -7.3264  -7.2681  -6.4305  -6.3323  -6.2006  -5.8040  -5.4280  -5.1392
    -4.0352   0.5103   1.7606   1.8019   2.1296   2.3080   2.9170   3.0133
     3.1308   3.7316   3.7557   3.8244   4.0471   4.0953   4.5945   4.8434
     4.9963   5.1538   5.2715   5.6346   5.7988   5.9483   6.0942   6.5674

          k = 0.1500 0.0000 0.0000 ( 14191 PWs)   bands (ev):

   -20.5867 -20.1358 -19.4295 -18.4780 -17.3206 -16.1087 -13.8516 -12.3346
   -10.6433  -9.3651  -9.1673  -8.7267  -8.5696  -8.3554  -8.0606  -7.5092
    -7.4148  -7.2717  -6.6335  -6.3795  -6.2367  -5.9502  -5.5573  -5.0437
    -3.9362   0.4692   1.7666   1.8617   2.2415   2.4152   3.0039   3.0638
     3.2419   3.8205   3.8451   3.9347   4.1037   4.1516   4.6854   4.9550
     5.1100   5.2667   5.3724   5.6858   5.7443   6.0618   6.1551   6.5754

          k = 0.1667 0.0000 0.0000 ( 14197 PWs)   bands (ev):

   -20.4934 -20.0430 -19.3376 -18.3875 -17.2327 -16.0249 -13.7823 -12.2810
   -10.6280  -9.6507  -9.3658  -8.8504  -8.6170  -8.4588  -7.9509  -7.7389
    -7.5519  -7.1638  -6.8008  -6.6138  -6.1304  -6.0644  -5.7011  -4.9376
    -3.8259   0.4169   1.7177   1.9740   2.3667   2.5339   3.0961   3.1005
     3.3658   3.9008   3.9423   4.0576   4.1457   4.2684   4.7796   5.0795
     5.2368   5.3927   5.4830   5.5620   5.8658   6.1878   6.2258   6.5393

          k = 0.1833 0.0000 0.0000 ( 14193 PWs)   bands (ev):

   -20.3904 -19.9405 -19.2361 -18.2878 -17.1358 -15.9325 -13.7090 -12.2279
   -10.6318  -9.9388  -9.6167  -8.9677  -8.8749  -8.3366  -7.9373  -7.8301
    -7.7493  -7.0450  -6.9196  -6.8817  -6.1654  -6.0138  -5.8584  -4.8212
    -3.7047   0.3517   1.6531   2.0973   2.5054   2.6632   3.0959   3.2070
     3.5025   3.9713   4.0431   4.1932   4.2349   4.3974   4.8637   5.2169
     5.3762   5.4456   5.5317   5.6026   5.9984   6.3051   6.3299   6.4304

          k = 0.2000 0.0000 0.0000 ( 14191 PWs)   bands (ev):

   -20.2777 -19.8284 -19.1251 -18.1787 -17.0300 -15.8314 -13.6335 -12.1793
   -10.6748 -10.2161  -9.8862  -9.1234  -9.1143  -8.2033  -8.0846  -7.9969
    -7.6984  -7.1681  -6.9980  -6.9157  -6.2652  -6.0284  -5.8870  -4.6950
    -3.5726   0.2720   1.5708   2.2313   2.6575   2.8023   3.0516   3.3241
     3.6518   4.0510   4.1368   4.3413   4.3624   4.5390   4.9051   5.3669
     5.3810   5.5271   5.6836   5.7303   6.1415   6.2505   6.4022   6.4807

          k = 0.2167 0.0000 0.0000 ( 14187 PWs)   bands (ev):

   -20.1554 -19.7067 -19.0047 -18.0604 -16.9152 -15.7218 -13.5588 -12.1424
   -10.7930 -10.4590 -10.1540  -9.3333  -9.3153  -8.2762  -8.1751  -8.0589
    -7.5559  -7.4643  -7.0527  -6.7760  -6.3691  -6.2100  -5.7505  -4.5593
    -3.4301   0.1762   1.4696   2.3757   2.8230   2.9499   2.9601   3.4527
     3.8138   4.1553   4.1961   4.5019   4.5151   4.6932   4.8839   5.4167
     5.5294   5.6817   5.8483   5.8650   6.0289   6.2935   6.5143   6.6438

          k = 0.2333 0.0000 0.0000 ( 14175 PWs)   bands (ev):

   -20.0236 -19.5756 -18.8748 -17.9329 -16.7917 -15.6036 -13.4894 -12.1282
   -11.0006 -10.6648 -10.4030  -9.5878  -9.4587  -8.5724  -8.2246  -7.9037
    -7.7616  -7.4028  -7.0958  -6.6263  -6.4792  -6.4023  -5.6047  -4.4149
    -3.2774   0.0636   1.3487   2.5301   2.8260   3.0021   3.1046   3.5940
     3.9882   4.1680   4.2859   4.6747   4.6861   4.8601   4.8780   5.5281
     5.6969   5.7040   5.9273   6.0050   6.0254   6.4517   6.6435   6.7227

          k = 0.2500 0.0000 0.0000 ( 14151 PWs)   bands (ev):

   -19.8822 -19.4349 -18.7357 -17.7964 -16.6595 -15.4770 -13.4325 -12.1536
   -11.2485 -10.8792 -10.6143  -9.8692  -9.5410  -8.8735  -8.2760  -8.0306
    -7.7378  -7.2394  -7.1341  -6.6043  -6.5965  -6.4670  -5.4502  -4.2625
    -3.1152  -0.0665   1.2084   2.6565   2.6940   3.1946   3.2645   3.7497
     4.0260   4.1748   4.4367   4.8595   4.8723   4.9551   5.0399   5.4397
     5.6696   5.8903   6.0928   6.1476   6.2143   6.4064   6.6109   6.7905

          k = 0.2667 0.0000 0.0000 ( 14159 PWs)   bands (ev):

   -19.7314 -19.2850 -18.5873 -17.6510 -16.5190 -15.3422 -13.3997 -12.2376
   -11.4921 -11.1214 -10.7713 -10.1604  -9.5884  -9.1587  -8.4649  -8.1457
    -7.5613  -7.1719  -7.0660  -6.8145  -6.7219  -6.2985  -5.2877  -4.1034
    -2.9442  -0.2139   1.0499   2.4584   2.8670   3.4007   3.4279   3.8063
     3.9215   4.3734   4.5898   5.0561   5.0638   5.0978   5.1701   5.2327
     5.7724   6.0870   6.1394   6.2863   6.2949   6.4131   6.7601   6.9199

          k = 0.2833 0.0000 0.0000 ( 14145 PWs)   bands (ev):

   -19.5712 -19.1257 -18.4299 -17.4968 -16.3704 -15.1993 -13.4070 -12.3896
   -11.7118 -11.3751 -10.8804 -10.4355  -9.6934  -9.3495  -8.7566  -8.1476
    -7.3746  -7.2116  -7.0319  -6.8829  -6.8548  -6.1213  -5.1182  -3.9389
    -2.7654  -0.3776   0.8758   2.2380   3.0484   3.5449   3.5935   3.6202
     4.1107   4.5836   4.6291   4.9923   5.2639   5.2788   5.2941   5.4385
     5.5981   6.1595   6.2905   6.4084   6.5132   6.6156   6.8823   6.9090

          k = 0.3000 0.0000 0.0000 ( 14153 PWs)   bands (ev):

   -19.4017 -18.9572 -18.2634 -17.3340 -16.2143 -15.0487 -13.4719 -12.6008
   -11.9182 -11.5960 -11.0159 -10.6223  -9.9411  -9.3720  -9.0644  -8.1262
    -7.2682  -7.2421  -7.1779  -6.9951  -6.6904  -5.9361  -4.9428  -3.7715
    -2.5803  -0.5555   0.6895   2.0009   3.2374   3.2601   3.7605   3.8531
     4.3181   4.3874   4.8047   5.1197   5.2669   5.4819   5.4856   5.5209
     5.6573   6.3465   6.4511   6.5388   6.7453   6.7855   6.9691   6.9857

          k = 0.3167 0.0000 0.0000 ( 14135 PWs)   bands (ev):

   -19.2230 -18.7796 -18.0881 -17.1631 -16.0513 -14.8909 -13.6026 -12.8524
   -12.1596 -11.7167 -11.2591 -10.6533 -10.2424  -9.3746  -9.3226  -8.0972
    -7.4874  -7.2991  -7.1423  -6.9715  -6.4891  -5.7437  -4.7632  -3.6043
    -2.3915  -0.7444   0.4965   1.7526   2.9614   3.4330   3.9291   4.0657
     4.0995   4.5435   4.9110   5.0358   5.3357   5.7085   5.7122   5.7616
     5.8888   6.4968   6.5694   6.7516   6.8216   6.9908   7.1077   7.1624

          k = 0.3333 0.0000 0.0000 ( 14128 PWs)   bands (ev):

   -19.0352 -18.5931 -17.9041 -16.9843 -15.8828 -14.7273 -13.7907 -13.1262
   -12.4434 -11.7300 -11.5558 -10.5966 -10.5545  -9.6832  -9.2479  -8.0655
    -7.7207  -7.3513  -7.2955  -6.7558  -6.2796  -5.5452  -4.5816  -3.4425
    -2.2026  -0.9392   0.3040   1.4985   2.6552   3.6343   3.7278   4.1000
     4.3592   4.5478   4.7863   5.2753   5.5795   5.9394   5.9562   6.0150
     6.1327   6.5264   6.7561   6.8116   6.9806   7.2490   7.3000   7.3984

          k = 0.3500 0.0000 0.0000 ( 14130 PWs)   bands (ev):

   -18.8385 -18.3978 -17.7118 -16.7983 -15.7117 -14.5608 -14.0168 -13.4074
   -12.7451 -11.8664 -11.6734 -10.8667 -10.5024  -9.9872  -9.1601  -8.0342
    -7.9573  -7.4535  -7.4085  -6.5311  -6.0624  -5.3420  -4.4010  -3.2941
    -2.0201  -1.1324   0.1227   1.2447   2.3463   3.3848   3.8399   4.1823
     4.2737   4.6322   5.0454   5.5202   5.8420   6.1640   6.2160   6.2804
     6.3863   6.5843   6.6545   7.0693   7.2085   7.5198   7.5267   7.6546

          k = 0.3667 0.0000 0.0000 ( 14140 PWs)   bands (ev):

   -18.6329 -18.1938 -17.5115 -16.6063 -15.5444 -14.4023 -14.2586 -13.6772
   -13.0514 -12.1792 -11.5772 -11.1713 -10.4082 -10.2647  -9.0642  -8.1961
    -8.0069  -7.6133  -7.4713  -6.2980  -5.8386  -5.1358  -4.2258  -3.1716
    -1.8545  -1.3124  -0.0314   0.9980   2.0390   3.0415   3.8171   4.0486
     4.4508   4.9182   5.3197   5.7652   6.1205   6.3603   6.4907   6.5214
     6.5575   6.6724   6.7084   7.3406   7.3799   7.6810   7.7884   7.8027

          k = 0.3833 0.0000 0.0000 ( 14128 PWs)   bands (ev):

   -18.4187 -17.9815 -17.3036 -16.4100 -15.3989 -14.4874 -14.3070 -13.8746
   -13.3558 -12.4896 -11.5486 -11.3744 -10.6069 -10.2296  -8.9629  -8.4362
    -7.9944  -7.7648  -7.5398  -6.0570  -5.6090  -4.9292  -4.0619  -3.0937
    -1.7221  -1.4633  -0.1359   0.7670   1.7379   2.7008   3.4539   4.2588
     4.6310   5.2172   5.6070   6.0004   6.4136   6.4185   6.5234   6.7797
     6.8456   6.9158   6.9430   7.2959   7.6246   7.8142   8.0613   8.0639

          k = 0.4000 0.0000 0.0000 ( 14154 PWs)   bands (ev):

   -18.1960 -17.7611 -17.0890 -16.2133 -15.3303 -14.6423 -14.4196 -13.8490
   -13.6528 -12.7945 -11.8130 -11.2579 -10.8956 -10.0882  -8.8585  -8.6761
    -8.0446  -7.8600  -7.6138  -5.8088  -5.3752  -4.7253  -3.9179  -3.0823
    -1.6406  -1.5676  -0.1650   0.5625   1.4480   2.3656   3.0943   4.4691
     4.8132   5.5286   5.9011   6.2118   6.3269   6.6862   6.7206   7.0821
     7.1050   7.1438   7.1789   7.2263   7.9200   8.0647   8.0781   8.3564

          k = 0.4167 0.0000 0.0000 ( 14156 PWs)   bands (ev):

   -17.9652 -17.5331 -16.8688 -16.0249 -15.4214 -14.6452 -14.6420 -13.9330
   -13.6894 -13.0888 -12.1064 -11.1825 -11.0906  -9.9343  -8.9174  -8.7501
    -8.1862  -7.8702  -7.6930  -5.5541  -5.1389  -4.5287  -3.8051  -3.1508
    -1.6197  -1.6144  -0.1046   0.3984   1.1755   2.0388   2.7397   4.6783
     4.9947   5.8514   6.1339   6.3261   6.3906   6.7665   7.0326   7.0404
     7.3973   7.4513   7.4692   7.4942   7.9535   8.2257   8.3422   8.5329

          k = 0.4333 0.0000 0.0000 ( 14148 PWs)   bands (ev):

   -17.7264 -17.2979 -16.6452 -15.8680 -15.6339 -14.8549 -14.5610 -14.1564
   -13.5396 -13.3300 -12.3966 -11.4641 -10.9070  -9.7725  -9.1551  -8.6435
    -8.3563  -7.8579  -7.7765  -5.2939  -4.9024  -4.3456  -3.7368  -3.2927
    -1.6338  -1.6255   0.0351   0.2908   0.9292   1.7238   2.3915   4.8856
     5.1698   6.1330   6.1786   6.5027   6.5925   6.6612   7.2415   7.3718
     7.5747   7.7243   7.7665   7.7778   7.9658   8.5395   8.6320   8.7001

          k = 0.4500 0.0000 0.0000 ( 14148 PWs)   bands (ev):

   -17.4800 -17.0566 -16.4228 -15.8897 -15.8010 -14.9721 -14.6316 -14.1597
   -13.7063 -13.2294 -12.6801 -11.7394 -10.7120  -9.6048  -9.3910  -8.5383
    -8.5337  -7.8631  -7.8440  -5.0294  -4.6690  -4.1844  -3.7253  -3.4880
    -1.6447  -1.6362   0.2252   0.2537   0.7252   1.4252   2.0513   5.0909
     5.3279   6.1079   6.3102   6.5742   6.7563   6.9151   7.4146   7.5154
     7.7128   8.0614   8.0875   8.0961   8.2274   8.6093   8.8579   8.8693

          k = 0.4667 0.0000 0.0000 ( 14142 PWs)   bands (ev):

   -17.2266 -16.8103 -16.2161 -16.1537 -15.8857 -14.9316 -14.8356 -13.9818
   -13.9664 -13.0112 -12.9546 -12.0077 -10.5078  -9.6238  -9.4326  -8.7138
    -8.4378  -7.9497  -7.8329  -4.7621  -4.4432  -4.0557  -3.7762  -3.7173
    -1.6535  -1.6441   0.2906   0.3902   0.6316   1.1505   1.7212   5.2943
     5.4526   6.1126   6.1228   6.8907   6.9276   7.1167   7.3733   7.7855
     8.0592   8.3511   8.4050   8.4108   8.4421   8.5133   8.5618   8.8770

          k = 0.4833 0.0000 0.0000 ( 14154 PWs)   bands (ev):

   -16.9667 -16.5618 -16.4319 -16.0779 -16.0350 -15.0200 -14.7857 -14.2076
   -13.7642 -13.2139 -12.7780 -12.2671 -10.2959  -9.8527  -9.2575  -8.8937
    -8.3520  -8.0272  -7.8258  -4.4940  -4.2312  -3.9730  -3.9653  -3.8851
    -1.6564  -1.6517   0.3708   0.3844   0.8065   0.9175   1.4054   5.4951
     5.5285   5.9195   6.1440   7.0161   7.0173   7.2908   7.6886   7.9579
     8.0644   8.3809   8.3986   8.4453   8.7266   8.7428   8.7815   8.8139

          k = 0.5000 0.0000 0.0000 ( 14126 PWs)   bands (ev):

   -16.7067 -16.6959 -16.3379 -16.2890 -15.9598 -15.0999 -14.6755 -14.3440
   -13.6021 -13.3885 -12.5788 -12.4748 -10.0860 -10.0682  -9.1050  -9.0479
    -8.3115  -8.0649  -7.8234  -4.2324  -4.2228  -4.0494  -4.0331  -3.9421
    -1.6617  -1.6499   0.3423   0.4562   0.8002   1.0230   1.1627   5.5529
     5.6543   5.7589   6.1644   6.9611   7.0668   7.6607   7.6857   7.9823
     8.0151   8.1126   8.4561   8.6338   8.8540   8.8722   8.9144   8.9653

     Writing output data file ZGNR6.save

     init_run     :      2.93s CPU      3.14s WALL (       1 calls)
     electrons    :    732.06s CPU    738.67s WALL (       1 calls)

     Called by init_run:
     wfcinit      :      0.00s CPU      0.01s WALL (       1 calls)
     potinit      :      0.93s CPU      0.98s WALL (       1 calls)

     Called by electrons:
     c_bands      :    732.06s CPU    738.67s WALL (       1 calls)
     v_of_rho     :      0.41s CPU      0.45s WALL (       1 calls)
     newd         :      0.56s CPU      0.67s WALL (       1 calls)
     PAW_pot      :      0.46s CPU      0.46s WALL (       1 calls)

     Called by c_bands:
     init_us_2    :      0.12s CPU      0.16s WALL (      31 calls)
     cegterg      :    709.03s CPU    714.49s WALL (     106 calls)

     Called by sum_band:

     Called by *egterg:
     h_psi        :    285.61s CPU    286.50s WALL (    2057 calls)
     s_psi        :     67.53s CPU     67.59s WALL (    2057 calls)
     g_psi        :      1.20s CPU      1.21s WALL (    1920 calls)
     cdiaghg      :     16.57s CPU     16.60s WALL (    1951 calls)

     Called by h_psi:
     h_psi:pot    :    284.44s CPU    285.32s WALL (    2057 calls)
     h_psi:calbec :     71.11s CPU     71.19s WALL (    2057 calls)
     vloc_psi     :    145.77s CPU    146.41s WALL (    2057 calls)
     add_vuspsi   :     67.55s CPU     67.71s WALL (    2057 calls)

     General routines
     calbec       :     71.10s CPU     71.18s WALL (    2057 calls)
     fft          :      0.20s CPU      0.21s WALL (      13 calls)
     ffts         :      0.00s CPU      0.00s WALL (       1 calls)
     fftw         :    117.87s CPU    118.34s WALL (   68650 calls)
     interpolate  :      0.02s CPU      0.02s WALL (       1 calls)
     davcio       :      0.04s CPU      1.07s WALL (      31 calls)

     Parallel routines
     fft_scatter  :     13.43s CPU     13.47s WALL (   68664 calls)

     PWSCF        : 12m15.18s CPU    12m22.41s WALL


   This run was terminated on:   9:36:20  21Mar2019            

=------------------------------------------------------------------------------=
   JOB DONE.
=------------------------------------------------------------------------------=
