
     Program PWSCF v.6.0 (svn rev. 13079) starts on 21Mar2019 at  9:17:34 

     This program is part of the open-source Quantum ESPRESSO suite
     for quantum simulation of materials; please cite
         "P. Giannozzi et al., J. Phys.:Condens. Matter 21 395502 (2009);
          URL http://www.quantum-espresso.org", 
     in publications or presentations arising from this work. More details at
     http://www.quantum-espresso.org/quote

     Parallel version (MPI), running on     1 processors
     Waiting for input...
     Reading input from standard input

     Current dimensions of program PWSCF are:
     Max number of different atomic species (ntypx) = 10
     Max number of k-points (npk) =  40000
     Max angular momentum in pseudopotentials (lmaxx) =  3
               file C.pbe-n-kjpaw_psl.0.1.UPF: wavefunction(s)  2P renormalized
               file H.pbe-kjpaw_psl.0.1.UPF: wavefunction(s)  1S renormalized

     Subspace diagonalization in iterative solution of the eigenvalue problem:
     a serial algorithm will be used


     G-vector sticks info
     --------------------
     sticks:   dense  smooth     PW     G-vecs:    dense   smooth      PW
     Sum        5025    2251    691               382547   113595   19257



     bravais-lattice index     =            0
     lattice parameter (alat)  =       4.6487  a.u.
     unit-cell volume          =    3320.1806 (a.u.)^3
     number of atoms/cell      =           14
     number of atomic types    =            2
     number of electrons       =        50.00
     number of Kohn-Sham states=           48
     kinetic-energy cutoff     =      40.0000  Ry
     charge density cutoff     =     360.0000  Ry
     convergence threshold     =      1.0E-06
     mixing beta               =       0.7000
     number of iterations used =            8  plain     mixing
     Exchange-correlation      =  SLA  PW   PBX  PBC ( 1  4  3  4 0 0)

     celldm(1)=   4.648726  celldm(2)=   0.000000  celldm(3)=   0.000000
     celldm(4)=   0.000000  celldm(5)=   0.000000  celldm(6)=   0.000000

     crystal axes: (cart. coord. in units of alat)
               a(1) = (   1.000000   0.000000   0.000000 )  
               a(2) = (   0.000000   8.130081   0.000000 )  
               a(3) = (   0.000000   0.000000   4.065041 )  

     reciprocal axes: (cart. coord. in units 2 pi/alat)
               b(1) = (  1.000000  0.000000  0.000000 )  
               b(2) = (  0.000000  0.123000  0.000000 )  
               b(3) = (  0.000000  0.000000  0.246000 )  


     PseudoPot. # 1 for  C read from file:
     /mnt/hgfs/Linux_NTNU/QE_docs/PSEUDO_POTENTIALS/C.pbe-n-kjpaw_psl.0.1.UPF
     MD5 check sum: bf2aebf1cd97aced799cfc3ffd9ff9ea
     Pseudo is Projector augmented-wave + core cor, Zval =  4.0
     Generated using "atomic" code by A. Dal Corso  v.5.0.2 svn rev. 9415
     Shape of augmentation charge: BESSEL
     Using radial grid of 1073 points,  4 beta functions with: 
                l(1) =   0
                l(2) =   0
                l(3) =   1
                l(4) =   1
     Q(r) pseudized with 0 coefficients 


     PseudoPot. # 2 for  H read from file:
     /mnt/hgfs/Linux_NTNU/QE_docs/PSEUDO_POTENTIALS/H.pbe-kjpaw_psl.0.1.UPF
     MD5 check sum: fbb168fef676c0aaadbafd73f5b1efa8
     Pseudo is Projector augmented-wave, Zval =  1.0
     Generated using "atomic" code by A. Dal Corso  v.5.0.2 svn rev. 9415
     Shape of augmentation charge: PSQ
     Using radial grid of  929 points,  2 beta functions with: 
                l(1) =   0
                l(2) =   0
     Q(r) pseudized with 0 coefficients 


     atomic species   valence    mass     pseudopotential
        C              4.00    12.01100      C( 1.00)
        H              1.00     1.00000      H( 1.00)

      2 Sym. Ops. (no inversion) found



   Cartesian axes

     site n.     atom                  positions (alat units)
         1           C   tau(   1) = (   0.0000000   0.0000000   0.0000000  )
         2           C   tau(   2) = (   0.4999008   0.2886179   0.0000000  )
         3           C   tau(   3) = (   0.0000000  -0.5772358   0.0000000  )
         4           C   tau(   4) = (   0.4999008  -0.8658537   0.0000000  )
         5           C   tau(   5) = (   0.0000000  -1.7317073   0.0000000  )
         6           C   tau(   6) = (   0.4999008  -1.4430894   0.0000000  )
         7           C   tau(   7) = (   0.0000000  -2.3089431   0.0000000  )
         8           C   tau(   8) = (   0.4999008  -2.5975610   0.0000000  )
         9           C   tau(   9) = (   0.0000000  -3.4634146   0.0000000  )
        10           C   tau(  10) = (   0.4999008  -3.1747967   0.0000000  )
        11           C   tau(  11) = (   0.0000000  -4.0406504   0.0000000  )
        12           C   tau(  12) = (   0.4999008  -4.3292683   0.0000000  )
        13           H   tau(  13) = (   0.4999008   0.7357724   0.0000000  )
        14           H   tau(  14) = (   0.4999008  -4.7764228   0.0000000  )

     number of k points=    11  gaussian smearing, width (Ry)=  0.0300
                       cart. coord. in units 2pi/alat
        k(    1) = (   0.0000000   0.0000000   0.0000000), wk =   0.1000000
        k(    2) = (   0.0500000   0.0000000   0.0000000), wk =   0.2000000
        k(    3) = (   0.1000000   0.0000000   0.0000000), wk =   0.2000000
        k(    4) = (   0.1500000   0.0000000   0.0000000), wk =   0.2000000
        k(    5) = (   0.2000000   0.0000000   0.0000000), wk =   0.2000000
        k(    6) = (   0.2500000   0.0000000   0.0000000), wk =   0.2000000
        k(    7) = (   0.3000000   0.0000000   0.0000000), wk =   0.2000000
        k(    8) = (   0.3500000   0.0000000   0.0000000), wk =   0.2000000
        k(    9) = (   0.4000000   0.0000000   0.0000000), wk =   0.2000000
        k(   10) = (   0.4500000   0.0000000   0.0000000), wk =   0.2000000
        k(   11) = (  -0.5000000   0.0000000   0.0000000), wk =   0.1000000

     Dense  grid:   382547 G-vectors     FFT dimensions: (  30, 240, 120)

     Smooth grid:   113595 G-vectors     FFT dimensions: (  20, 160,  80)

     Estimated max dynamical RAM per process >     446.95Mb

     Initial potential from superposition of free atoms

     starting charge   49.99948, renormalised to   50.00000

     negative rho (up, down):  1.003E-05 0.000E+00
     Starting wfc are   50 randomized atomic wfcs
     Checking if some PAW data can be deallocated... 

     total cpu time spent up to now is       11.0 secs

     per-process dynamical memory:   311.9 Mb

     Self-consistent Calculation

     iteration #  1     ecut=    40.00 Ry     beta=0.70
     Davidson diagonalization with overlap
     ethr =  1.00E-02,  avg # of iterations =  5.5

     total cpu time spent up to now is       61.4 secs

     total energy              =    -223.35005112 Ry
     Harris-Foulkes estimate   =    -224.26024100 Ry
     estimated scf accuracy    <       1.44305667 Ry

     iteration #  2     ecut=    40.00 Ry     beta=0.70
     Davidson diagonalization with overlap
     ethr =  2.89E-03,  avg # of iterations =  7.5

     total cpu time spent up to now is       97.1 secs

     total energy              =    -223.56031754 Ry
     Harris-Foulkes estimate   =    -223.61237108 Ry
     estimated scf accuracy    <       0.08293532 Ry

     iteration #  3     ecut=    40.00 Ry     beta=0.70
     Davidson diagonalization with overlap
     ethr =  1.66E-04,  avg # of iterations =  7.1

     total cpu time spent up to now is      142.4 secs

     total energy              =    -223.57662671 Ry
     Harris-Foulkes estimate   =    -223.65500954 Ry
     estimated scf accuracy    <       0.21579393 Ry

     iteration #  4     ecut=    40.00 Ry     beta=0.70
     Davidson diagonalization with overlap
     ethr =  1.66E-04,  avg # of iterations =  8.6

     negative rho (up, down):  1.694E-07 0.000E+00

     total cpu time spent up to now is      172.8 secs

     total energy              =    -223.60931225 Ry
     Harris-Foulkes estimate   =    -223.67405804 Ry
     estimated scf accuracy    <       0.32760438 Ry

     iteration #  5     ecut=    40.00 Ry     beta=0.70
     Davidson diagonalization with overlap
     ethr =  1.66E-04,  avg # of iterations =  6.9

     negative rho (up, down):  2.140E-07 0.000E+00

     total cpu time spent up to now is      199.5 secs

     total energy              =    -223.62740291 Ry
     Harris-Foulkes estimate   =    -223.63251931 Ry
     estimated scf accuracy    <       0.01232113 Ry

     iteration #  6     ecut=    40.00 Ry     beta=0.70
     Davidson diagonalization with overlap
     ethr =  2.46E-05,  avg # of iterations =  7.3

     negative rho (up, down):  1.685E-06 0.000E+00

     total cpu time spent up to now is      227.6 secs

     total energy              =    -223.62953281 Ry
     Harris-Foulkes estimate   =    -223.63140892 Ry
     estimated scf accuracy    <       0.00643686 Ry

     iteration #  7     ecut=    40.00 Ry     beta=0.70
     Davidson diagonalization with overlap
     ethr =  1.29E-05,  avg # of iterations =  4.7

     negative rho (up, down):  1.017E-05 0.000E+00

     total cpu time spent up to now is      250.1 secs

     total energy              =    -223.63055336 Ry
     Harris-Foulkes estimate   =    -223.63086917 Ry
     estimated scf accuracy    <       0.00088689 Ry

     iteration #  8     ecut=    40.00 Ry     beta=0.70
     Davidson diagonalization with overlap
     ethr =  1.77E-06,  avg # of iterations = 10.4

     negative rho (up, down):  1.273E-05 0.000E+00

     total cpu time spent up to now is      286.8 secs

     total energy              =    -223.63085711 Ry
     Harris-Foulkes estimate   =    -223.63095013 Ry
     estimated scf accuracy    <       0.00040724 Ry

     iteration #  9     ecut=    40.00 Ry     beta=0.70
     Davidson diagonalization with overlap
     ethr =  8.14E-07,  avg # of iterations =  1.0

     negative rho (up, down):  1.282E-05 0.000E+00

     total cpu time spent up to now is      307.3 secs

     total energy              =    -223.63088425 Ry
     Harris-Foulkes estimate   =    -223.63089789 Ry
     estimated scf accuracy    <       0.00004933 Ry

     iteration # 10     ecut=    40.00 Ry     beta=0.70
     Davidson diagonalization with overlap
     ethr =  9.87E-08,  avg # of iterations =  3.5

     negative rho (up, down):  1.283E-05 0.000E+00

     total cpu time spent up to now is      332.7 secs

     total energy              =    -223.63089719 Ry
     Harris-Foulkes estimate   =    -223.63090079 Ry
     estimated scf accuracy    <       0.00000645 Ry

     iteration # 11     ecut=    40.00 Ry     beta=0.70
     Davidson diagonalization with overlap
     ethr =  1.29E-08,  avg # of iterations =  4.3

     negative rho (up, down):  1.423E-05 0.000E+00

     total cpu time spent up to now is      361.8 secs

     total energy              =    -223.63090008 Ry
     Harris-Foulkes estimate   =    -223.63090203 Ry
     estimated scf accuracy    <       0.00000930 Ry

     iteration # 12     ecut=    40.00 Ry     beta=0.70
     Davidson diagonalization with overlap
     ethr =  1.29E-08,  avg # of iterations =  1.0

     negative rho (up, down):  1.442E-05 0.000E+00

     total cpu time spent up to now is      382.4 secs

     End of self-consistent calculation

          k = 0.0000 0.0000 0.0000 ( 14235 PWs)   bands (ev):

   -20.9848 -20.5313 -19.8208 -18.8634 -17.6953 -16.4655 -14.1679 -12.5993
   -10.8061  -9.0450  -8.9957  -8.5311  -7.8522  -7.7358  -7.4179  -7.3207
    -6.7814  -6.6953  -6.0205  -5.9249  -5.5025  -5.2798  -4.9670  -4.7725
    -4.4102   0.6146   1.3747   1.7092   1.8586   1.8965   2.5802   2.7105
     2.7179   3.3358   3.4070   3.4139   3.6500   4.1357   4.2343   4.4211
     4.5677   4.7268   4.8736   5.2100   5.5148   5.7889   6.0152   6.0735

          k = 0.0500 0.0000 0.0000 ( 14265 PWs)   bands (ev):

   -20.9404 -20.4871 -19.7770 -18.8203 -17.6534 -16.4256 -14.1312 -12.5676
   -10.7830  -8.9918  -8.9888  -8.4784  -8.0488  -7.6837  -7.6095  -7.3601
    -6.9422  -6.6437  -6.2615  -5.9085  -5.4831  -5.4508  -5.0199  -4.9510
    -4.3571   0.6051   1.4296   1.7681   1.8585   1.9550   2.6291   2.7655
     2.7699   3.3938   3.4619   3.4660   3.7066   4.1315   4.2855   4.4806
     4.6279   4.7872   4.9318   5.2713   5.5770   5.8608   6.0695   6.3792

          k = 0.1000 0.0000 0.0000 ( 14203 PWs)   bands (ev):

   -20.8073 -20.3546 -19.6458 -18.6912 -17.5278 -16.3061 -14.0229 -12.4750
   -10.7194  -8.9874  -8.8328  -8.5903  -8.3207  -8.1254  -7.6611  -7.5279
    -7.2065  -6.8021  -6.4897  -6.0072  -5.9993  -5.4284  -5.2967  -5.2140
    -4.1983   0.5666   1.5931   1.8430   1.9451   2.1294   2.7723   2.8992
     2.9474   3.5645   3.6065   3.6425   3.8745   4.1117   4.4385   4.6586
     4.8087   4.9675   5.1014   5.4514   5.7602   5.9693   5.9918   6.4729

          k = 0.1500 0.0000 0.0000 ( 14191 PWs)   bands (ev):

   -20.5859 -20.1343 -19.4275 -18.4765 -17.3191 -16.1073 -13.8501 -12.3329
   -10.6417  -9.3639  -9.1662  -8.7250  -8.5691  -8.3536  -8.0595  -7.5076
    -7.4130  -7.2703  -6.6317  -6.3775  -6.2356  -5.9487  -5.5558  -5.0425
    -3.9354   0.4700   1.7678   1.8621   2.2409   2.4154   3.0042   3.0646
     3.2418   3.8201   3.8453   3.9349   4.1041   4.1516   4.6854   4.9544
     5.1099   5.2667   5.3725   5.6868   5.7441   6.0616   6.1557   6.5760

          k = 0.2000 0.0000 0.0000 ( 14191 PWs)   bands (ev):

   -20.2769 -19.8269 -19.1231 -18.1772 -17.0285 -15.8301 -13.6321 -12.1776
   -10.6734 -10.2147  -9.8848  -9.1218  -9.1127  -8.2029  -8.0832  -7.9950
    -7.6973  -7.1664  -6.9963  -6.9142  -6.2634  -6.0269  -5.8859  -4.6938
    -3.5718   0.2728   1.5721   2.2318   2.6568   2.8025   3.0527   3.3244
     3.6518   4.0511   4.1373   4.3416   4.3620   4.5389   4.9056   5.3663
     5.3813   5.5270   5.6837   5.7305   6.1413   6.2519   6.4028   6.4805

          k = 0.2500 0.0000 0.0000 ( 14151 PWs)   bands (ev):

   -19.8813 -19.4334 -18.7336 -17.7949 -16.6581 -15.4756 -13.4311 -12.1519
   -11.2475 -10.8771 -10.6129  -9.8675  -9.5396  -8.8715  -8.2749  -8.0289
    -7.7373  -7.2383  -7.1325  -6.6026  -6.5948  -6.4655  -5.4491  -4.2614
    -3.1144  -0.0657   1.2096   2.6577   2.6946   3.1940   3.2650   3.7498
     4.0272   4.1748   4.4369   4.8598   4.8717   4.9554   5.0398   5.4410
     5.6695   5.8898   6.0927   6.1479   6.2143   6.4071   6.6109   6.7910

          k = 0.3000 0.0000 0.0000 ( 14153 PWs)   bands (ev):

   -19.4008 -18.9556 -18.2613 -17.3326 -16.2128 -15.0473 -13.4706 -12.5991
   -11.9169 -11.5942 -11.0146 -10.6204  -9.9397  -9.3702  -9.0630  -8.1249
    -7.2671  -7.2400  -7.1774  -6.9932  -6.6893  -5.9345  -4.9417  -3.7704
    -2.5795  -0.5546   0.6907   2.0021   3.2380   3.2615   3.7612   3.8525
     4.3181   4.3887   4.8047   5.1200   5.2677   5.4822   5.4858   5.5202
     5.6571   6.3463   6.4518   6.5385   6.7452   6.7859   6.9697   6.9862

          k = 0.3500 0.0000 0.0000 ( 14130 PWs)   bands (ev):

   -18.8376 -18.3962 -17.7098 -16.7968 -15.7103 -14.5594 -14.0156 -13.4058
   -12.7432 -11.8649 -11.6720 -10.8651 -10.5007  -9.9857  -9.1585  -8.0330
    -7.9558  -7.4516  -7.4068  -6.5306  -6.0613  -5.3404  -4.4000  -3.2931
    -2.0191  -1.1314   0.1238   1.2458   2.3477   3.3862   3.8407   4.1831
     4.2746   4.6316   5.0454   5.5203   5.8422   6.1643   6.2162   6.2798
     6.3862   6.5851   6.6556   7.0691   7.2088   7.5197   7.5267   7.6548

          k = 0.4000 0.0000 0.0000 ( 14154 PWs)   bands (ev):

   -18.1952 -17.7596 -17.0869 -16.2118 -15.3291 -14.6409 -14.4179 -13.8478
   -13.6509 -12.7929 -11.8114 -11.2565 -10.8942 -10.0864  -8.8568  -8.6746
    -8.0433  -7.8582  -7.6122  -5.8083  -5.3741  -4.7236  -3.9168  -3.0816
    -1.6393  -1.5664  -0.1643   0.5635   1.4494   2.3670   3.0951   4.4699
     4.8142   5.5280   5.9012   6.2122   6.3280   6.6868   6.7208   7.0824
     7.1061   7.1433   7.1793   7.2263   7.9199   8.0651   8.0792   8.3575

          k = 0.4500 0.0000 0.0000 ( 14148 PWs)   bands (ev):

   -17.4791 -17.0550 -16.4206 -15.8888 -15.7995 -14.9705 -14.6296 -14.1583
   -13.7049 -13.2279 -12.6785 -11.7380 -10.7106  -9.6030  -9.3895  -8.5365
    -8.5321  -7.8614  -7.8427  -5.0289  -4.6679  -4.1826  -3.7243  -3.4876
    -1.6431  -1.6351   0.2257   0.2545   0.7267   1.4267   2.0521   5.0919
     5.3290   6.1091   6.3113   6.5738   6.7571   6.9152   7.4155   7.5154
     7.7130   8.0617   8.0870   8.0964   8.2275   8.6103   8.8577   8.8702

          k =-0.5000 0.0000 0.0000 ( 14126 PWs)   bands (ev):

   -16.7055 -16.6953 -16.3355 -16.2883 -15.9575 -15.0981 -14.6738 -14.3426
   -13.6008 -13.3867 -12.5775 -12.4733 -10.0851 -10.0662  -9.1024  -9.0469
    -8.3097  -8.0633  -7.8221  -4.2313  -4.2229  -4.0471  -4.0333  -3.9403
    -1.6602  -1.6488   0.3434   0.4564   0.8024   1.0232   1.1642   5.5542
     5.6555   5.7600   6.1657   6.9619   7.0673   7.6601   7.6853   7.9832
     8.0150   8.1126   8.4562   8.6339   8.8537   8.8723   8.9150   8.9664

     the Fermi energy is    -1.6219 ev

!    total energy              =    -223.63090056 Ry
     Harris-Foulkes estimate   =    -223.63090072 Ry
     estimated scf accuracy    <       0.00000022 Ry

     total all-electron energy =      -916.800110 Ry

     The total energy is the sum of the following terms:

     one-electron contribution =    -755.50250869 Ry
     hartree contribution      =     388.09866440 Ry
     xc contribution           =     -51.08840246 Ry
     ewald contribution        =     274.71835831 Ry
     one-center paw contrib.   =     -79.84753609 Ry
     smearing contrib. (-TS)   =      -0.00947603 Ry

     convergence has been achieved in  12 iterations

     Writing output data file ZGNR6.save

     init_run     :     10.46s CPU     10.80s WALL (       1 calls)
     electrons    :    364.07s CPU    371.72s WALL (       1 calls)

     Called by init_run:
     wfcinit      :      7.37s CPU      7.42s WALL (       1 calls)
     potinit      :      1.38s CPU      1.45s WALL (       1 calls)

     Called by electrons:
     c_bands      :    312.90s CPU    318.20s WALL (      12 calls)
     sum_band     :     35.25s CPU     36.34s WALL (      12 calls)
     v_of_rho     :      4.82s CPU      4.99s WALL (      13 calls)
     newd         :      6.64s CPU      7.60s WALL (      13 calls)
     PAW_pot      :      4.93s CPU      4.93s WALL (      13 calls)
     mix_rho      :      0.46s CPU      0.47s WALL (      12 calls)

     Called by c_bands:
     init_us_2    :      1.10s CPU      1.17s WALL (     275 calls)
     cegterg      :    310.20s CPU    315.24s WALL (     132 calls)

     Called by sum_band:
     sum_band:bec :      0.01s CPU      0.01s WALL (     132 calls)
     addusdens    :      4.96s CPU      5.92s WALL (      12 calls)

     Called by *egterg:
     h_psi        :    148.92s CPU    149.29s WALL (     890 calls)
     s_psi        :     35.26s CPU     35.28s WALL (     890 calls)
     g_psi        :      0.51s CPU      0.51s WALL (     747 calls)
     cdiaghg      :      6.86s CPU      6.88s WALL (     879 calls)

     Called by h_psi:
     h_psi:pot    :    148.30s CPU    148.66s WALL (     890 calls)
     h_psi:calbec :     37.73s CPU     37.75s WALL (     890 calls)
     vloc_psi     :     75.35s CPU     75.66s WALL (     890 calls)
     add_vuspsi   :     35.22s CPU     35.24s WALL (     890 calls)

     General routines
     calbec       :     50.48s CPU     50.51s WALL (    1022 calls)
     fft          :      2.56s CPU      2.64s WALL (     204 calls)
     ffts         :      0.06s CPU      0.06s WALL (      25 calls)
     fftw         :     73.51s CPU     73.81s WALL (   43584 calls)
     interpolate  :      0.43s CPU      0.47s WALL (      25 calls)
     davcio       :      0.00s CPU      0.40s WALL (      11 calls)

     Parallel routines
     fft_scatter  :      8.71s CPU      8.75s WALL (   43813 calls)

     PWSCF        :  6m14.68s CPU     6m23.57s WALL


   This run was terminated on:   9:23:58  21Mar2019            

=------------------------------------------------------------------------------=
   JOB DONE.
=------------------------------------------------------------------------------=
