
     Program PWSCF v.6.0 (svn rev. 13079) starts on  4Apr2019 at 14:50:24 

     This program is part of the open-source Quantum ESPRESSO suite
     for quantum simulation of materials; please cite
         "P. Giannozzi et al., J. Phys.:Condens. Matter 21 395502 (2009);
          URL http://www.quantum-espresso.org", 
     in publications or presentations arising from this work. More details at
     http://www.quantum-espresso.org/quote

     Parallel version (MPI), running on     1 processors
     Waiting for input...
     Reading input from standard input

     Current dimensions of program PWSCF are:
     Max number of different atomic species (ntypx) = 10
     Max number of k-points (npk) =  40000
     Max angular momentum in pseudopotentials (lmaxx) =  3

     Atomic positions and unit cell read from directory:
     ./ZGNR12.save/

               file C.pbe-n-kjpaw_psl.0.1.UPF: wavefunction(s)  2P renormalized
               file H.pbe-kjpaw_psl.0.1.UPF: wavefunction(s)  1S renormalized

     Subspace diagonalization in iterative solution of the eigenvalue problem:
     a serial algorithm will be used


     G-vector sticks info
     --------------------
     sticks:   dense  smooth     PW     G-vecs:    dense   smooth      PW
     Sum       15077    6747   2075              2295449   681651  115295



     bravais-lattice index     =            0
     lattice parameter (alat)  =       4.6487  a.u.
     unit-cell volume          =   19921.0837 (a.u.)^3
     number of atoms/cell      =           26
     number of atomic types    =            2
     number of electrons       =        98.00
     number of Kohn-Sham states=           80
     kinetic-energy cutoff     =      40.0000  Ry
     charge density cutoff     =     360.0000  Ry
     Exchange-correlation      =  SLA  PW   PBX  PBC ( 1  4  3  4 0 0)

     celldm(1)=   4.648726  celldm(2)=   0.000000  celldm(3)=   0.000000
     celldm(4)=   0.000000  celldm(5)=   0.000000  celldm(6)=   0.000000

     crystal axes: (cart. coord. in units of alat)
               a(1) = (   1.000000   0.000000   0.000000 )  
               a(2) = (   0.000000  24.390244   0.000000 )  
               a(3) = (   0.000000   0.000000   8.130081 )  

     reciprocal axes: (cart. coord. in units 2 pi/alat)
               b(1) = (  1.000000  0.000000  0.000000 )  
               b(2) = (  0.000000  0.041000  0.000000 )  
               b(3) = (  0.000000  0.000000  0.123000 )  


     PseudoPot. # 1 for  C read from file:
     /mnt/hgfs/Linux_NTNU/QE_docs/PSEUDO_POTENTIALS/C.pbe-n-kjpaw_psl.0.1.UPF
     MD5 check sum: bf2aebf1cd97aced799cfc3ffd9ff9ea
     Pseudo is Projector augmented-wave + core cor, Zval =  4.0
     Generated using "atomic" code by A. Dal Corso  v.5.0.2 svn rev. 9415
     Shape of augmentation charge: BESSEL
     Using radial grid of 1073 points,  4 beta functions with: 
                l(1) =   0
                l(2) =   0
                l(3) =   1
                l(4) =   1
     Q(r) pseudized with 0 coefficients 


     PseudoPot. # 2 for  H read from file:
     /mnt/hgfs/Linux_NTNU/QE_docs/PSEUDO_POTENTIALS/H.pbe-kjpaw_psl.0.1.UPF
     MD5 check sum: fbb168fef676c0aaadbafd73f5b1efa8
     Pseudo is Projector augmented-wave, Zval =  1.0
     Generated using "atomic" code by A. Dal Corso  v.5.0.2 svn rev. 9415
     Shape of augmentation charge: PSQ
     Using radial grid of  929 points,  2 beta functions with: 
                l(1) =   0
                l(2) =   0
     Q(r) pseudized with 0 coefficients 


     atomic species   valence    mass     pseudopotential
        C              4.00    12.01100      C( 1.00)
        H              1.00     1.00000      H( 1.00)

      2 Sym. Ops. (no inversion) found



   Cartesian axes

     site n.     atom                  positions (alat units)
         1           C   tau(   1) = (   0.0000000   0.0000000   0.0000000  )
         2           C   tau(   2) = (   0.4999008   0.2886179   0.0000000  )
         3           C   tau(   3) = (   0.0000000  -0.5772358   0.0000000  )
         4           C   tau(   4) = (   0.4999008  -0.8658537   0.0000000  )
         5           C   tau(   5) = (   0.0000000  -1.7317073   0.0000000  )
         6           C   tau(   6) = (   0.4999008  -1.4430894   0.0000000  )
         7           C   tau(   7) = (   0.0000000  -2.3089431   0.0000000  )
         8           C   tau(   8) = (   0.4999008  -2.5975610   0.0000000  )
         9           C   tau(   9) = (   0.0000000  -3.4634146   0.0000000  )
        10           C   tau(  10) = (   0.4999008  -3.1747967   0.0000000  )
        11           C   tau(  11) = (   0.0000000  -4.0406504   0.0000000  )
        12           C   tau(  12) = (   0.4999008  -4.3292683   0.0000000  )
        13           C   tau(  13) = (   0.0000000  -5.1951220   0.0000000  )
        14           C   tau(  14) = (   0.4999008  -4.9065041   0.0000000  )
        15           C   tau(  15) = (   0.0000000  -5.7723577   0.0000000  )
        16           C   tau(  16) = (   0.4999008  -6.0609756   0.0000000  )
        17           C   tau(  17) = (   0.0000000  -6.9268293   0.0000000  )
        18           C   tau(  18) = (   0.4999008  -6.6382114   0.0000000  )
        19           C   tau(  19) = (   0.0000000  -7.5040650   0.0000000  )
        20           C   tau(  20) = (   0.4999008  -7.7926829   0.0000000  )
        21           C   tau(  21) = (   0.0000000  -8.6585366   0.0000000  )
        22           C   tau(  22) = (   0.4999008  -8.3699187   0.0000000  )
        23           C   tau(  23) = (   0.0000000  -9.2357724   0.0000000  )
        24           C   tau(  24) = (   0.4999008  -9.5243902   0.0000000  )
        25           H   tau(  25) = (   0.4999008   0.7357724   0.0000000  )
        26           H   tau(  26) = (   0.4999008  -9.9715447   0.0000000  )

     number of k points=    31  gaussian smearing, width (Ry)=  0.0300
                       cart. coord. in units 2pi/alat
        k(    1) = (   0.0000000   0.0000000   0.0000000), wk =   0.0645161
        k(    2) = (   0.0166667   0.0000000   0.0000000), wk =   0.0645161
        k(    3) = (   0.0333333   0.0000000   0.0000000), wk =   0.0645161
        k(    4) = (   0.0500000   0.0000000   0.0000000), wk =   0.0645161
        k(    5) = (   0.0666667   0.0000000   0.0000000), wk =   0.0645161
        k(    6) = (   0.0833333   0.0000000   0.0000000), wk =   0.0645161
        k(    7) = (   0.1000000   0.0000000   0.0000000), wk =   0.0645161
        k(    8) = (   0.1166667   0.0000000   0.0000000), wk =   0.0645161
        k(    9) = (   0.1333333   0.0000000   0.0000000), wk =   0.0645161
        k(   10) = (   0.1500000   0.0000000   0.0000000), wk =   0.0645161
        k(   11) = (   0.1666667   0.0000000   0.0000000), wk =   0.0645161
        k(   12) = (   0.1833333   0.0000000   0.0000000), wk =   0.0645161
        k(   13) = (   0.2000000   0.0000000   0.0000000), wk =   0.0645161
        k(   14) = (   0.2166667   0.0000000   0.0000000), wk =   0.0645161
        k(   15) = (   0.2333333   0.0000000   0.0000000), wk =   0.0645161
        k(   16) = (   0.2500000   0.0000000   0.0000000), wk =   0.0645161
        k(   17) = (   0.2666667   0.0000000   0.0000000), wk =   0.0645161
        k(   18) = (   0.2833333   0.0000000   0.0000000), wk =   0.0645161
        k(   19) = (   0.3000000   0.0000000   0.0000000), wk =   0.0645161
        k(   20) = (   0.3166667   0.0000000   0.0000000), wk =   0.0645161
        k(   21) = (   0.3333333   0.0000000   0.0000000), wk =   0.0645161
        k(   22) = (   0.3500000   0.0000000   0.0000000), wk =   0.0645161
        k(   23) = (   0.3666667   0.0000000   0.0000000), wk =   0.0645161
        k(   24) = (   0.3833333   0.0000000   0.0000000), wk =   0.0645161
        k(   25) = (   0.4000000   0.0000000   0.0000000), wk =   0.0645161
        k(   26) = (   0.4166667   0.0000000   0.0000000), wk =   0.0645161
        k(   27) = (   0.4333333   0.0000000   0.0000000), wk =   0.0645161
        k(   28) = (   0.4500000   0.0000000   0.0000000), wk =   0.0645161
        k(   29) = (   0.4666667   0.0000000   0.0000000), wk =   0.0645161
        k(   30) = (   0.4833333   0.0000000   0.0000000), wk =   0.0645161
        k(   31) = (   0.5000000   0.0000000   0.0000000), wk =   0.0645161

     Dense  grid:  2295449 G-vectors     FFT dimensions: (  30, 720, 240)

     Smooth grid:   681651 G-vectors     FFT dimensions: (  20, 480, 160)

     Estimated max dynamical RAM per process >    1855.98Mb

     The potential is recalculated from file :
     ./ZGNR12.save/charge-density.dat


     negative rho (up, down):  2.946E-04 0.000E+00
     Starting wfc are   98 randomized atomic wfcs
     Checking if some PAW data can be deallocated... 

     Band Structure Calculation
     Davidson diagonalization with overlap
     c_bands:  2 eigenvalues not converged
     c_bands:  1 eigenvalues not converged
     c_bands:  1 eigenvalues not converged
     c_bands:  1 eigenvalues not converged
     c_bands:  1 eigenvalues not converged
     c_bands:  1 eigenvalues not converged
     c_bands:  1 eigenvalues not converged
     c_bands:  1 eigenvalues not converged
     c_bands:  1 eigenvalues not converged
     c_bands:  1 eigenvalues not converged
     c_bands:  1 eigenvalues not converged
     c_bands:  1 eigenvalues not converged
     c_bands:  1 eigenvalues not converged
     c_bands:  1 eigenvalues not converged
     c_bands:  1 eigenvalues not converged
     c_bands:  2 eigenvalues not converged
     c_bands:  2 eigenvalues not converged
     c_bands:  2 eigenvalues not converged
     c_bands:  4 eigenvalues not converged
     c_bands:  3 eigenvalues not converged
     c_bands:  2 eigenvalues not converged
     c_bands:  1 eigenvalues not converged
     c_bands:  1 eigenvalues not converged
     c_bands:  2 eigenvalues not converged
     c_bands:  2 eigenvalues not converged

     ethr =  1.02E-09,  avg # of iterations =114.7

     total cpu time spent up to now is    18756.0 secs

     End of band structure calculation

          k = 0.0000 0.0000 0.0000 ( 85433 PWs)   bands (ev):

   -22.7573 -22.6247 -22.4225 -22.1493 -21.8046 -21.3895 -20.9054 -20.3554
   -19.7441 -19.0819 -18.3951 -17.7851 -16.1902 -15.4545 -14.5703 -13.6183
   -12.6308 -11.6301 -10.8324 -10.6798 -10.6373 -10.4454 -10.1290  -9.7324
    -9.6758  -9.6245  -9.4928  -9.2956  -9.2595  -9.0354  -8.7716  -8.7173
    -8.7162  -8.3510  -8.1126  -7.9539  -7.9495  -7.5318  -7.4660  -7.2553
    -7.1240  -6.8079  -6.7590  -6.7153  -6.4764  -6.3814  -6.3164  -6.1994
    -5.7533  -1.3307  -0.7900  -0.0489   0.0247   0.0783   0.1341   0.2528
     0.4450   0.4957   0.5974   0.6244   0.7326   0.7343   0.7600   0.8210
     0.8468   0.8762   0.9016   0.9152   0.9268   0.9410   1.0016   1.0031
     1.1010   1.1416   1.1792   1.1806   1.2178   1.2765   1.3624   1.3927

          k = 0.0167 0.0000 0.0000 ( 85405 PWs)   bands (ev):

   -22.7523 -22.6198 -22.4176 -22.1444 -21.7997 -21.3846 -20.9006 -20.3506
   -19.7394 -19.0773 -18.3906 -17.7808 -16.1861 -15.4506 -14.5668 -13.6152
   -12.6284 -11.6286 -10.8265 -10.6739 -10.6370 -10.4395 -10.1231  -9.7266
    -9.6774  -9.6468  -9.5149  -9.3177  -9.2537  -9.0571  -8.7795  -8.7347
    -8.7105  -8.3723  -8.1069  -7.9692  -7.9615  -7.5487  -7.4603  -7.2737
    -7.1320  -6.8022  -6.7949  -6.7079  -6.5000  -6.3877  -6.3364  -6.1936
    -5.7474  -1.3320  -0.7911  -0.0495   0.0313   0.0847   0.1403   0.2592
     0.4518   0.5024   0.6042   0.6284   0.7391   0.7410   0.7668   0.8278
     0.8537   0.8830   0.9082   0.9221   0.9311   0.9474   1.0084   1.0099
     1.1078   1.1485   1.1842   1.1874   1.2246   1.2833   1.3685   1.3994

          k = 0.0333 0.0000 0.0000 ( 85421 PWs)   bands (ev):

   -22.7375 -22.6050 -22.4028 -22.1297 -21.7850 -21.3700 -20.8862 -20.3363
   -19.7253 -19.0635 -18.3771 -17.7678 -16.1737 -15.4389 -14.5561 -13.6060
   -12.6211 -11.6240 -10.8087 -10.6562 -10.6363 -10.4219 -10.1056  -9.7130
    -9.7091  -9.6829  -9.5804  -9.3833  -9.2365  -9.1215  -8.8221  -8.7680
    -8.6933  -8.4349  -8.0899  -8.0270  -7.9862  -7.5970  -7.4434  -7.3302
    -7.1542  -6.8739  -6.7852  -6.7135  -6.5661  -6.4104  -6.3956  -6.1762
    -5.7295  -1.3359  -0.7945  -0.0517   0.0513   0.1038   0.1590   0.2785
     0.4720   0.5225   0.6247   0.6397   0.7585   0.7610   0.7872   0.8480
     0.8742   0.9036   0.9278   0.9427   0.9436   0.9672   1.0290   1.0304
     1.1281   1.1690   1.1994   1.2076   1.2451   1.3039   1.3867   1.4196

          k = 0.0500 0.0000 0.0000 ( 85419 PWs)   bands (ev):

   -22.7128 -22.5803 -22.3782 -22.1051 -21.7606 -21.3458 -20.8621 -20.3125
   -19.7018 -19.0404 -18.3547 -17.7462 -16.1531 -15.4195 -14.5385 -13.5908
   -12.6092 -11.6167 -10.7792 -10.6357 -10.6267 -10.3925 -10.0764  -9.8213
    -9.7021  -9.6802  -9.6789  -9.4904  -9.2261  -9.2077  -8.9200  -8.7966
    -8.6648  -8.5361  -8.1192  -8.0616  -8.0340  -7.6696  -7.4254  -7.4151
    -7.1887  -6.9847  -6.7568  -6.7420  -6.6678  -6.4909  -6.4533  -6.1473
    -5.6998  -1.3429  -0.8006  -0.0559   0.0844   0.1355   0.1901   0.3106
     0.5057   0.5560   0.6568   0.6588   0.7909   0.7942   0.8211   0.8818
     0.9085   0.9379   0.9605   0.9636   0.9771   1.0010   1.0633   1.0647
     1.1620   1.2033   1.2255   1.2414   1.2792   1.3382   1.4167   1.4534

          k = 0.0667 0.0000 0.0000 ( 85331 PWs)   bands (ev):

   -22.6783 -22.5458 -22.3437 -22.0708 -21.7264 -21.3118 -20.8284 -20.2791
   -19.6689 -19.0081 -18.3233 -17.7159 -16.1243 -15.3925 -14.5140 -13.5699
   -12.5931 -11.6074 -10.7378 -10.6363 -10.5855 -10.3514 -10.0356  -9.9686
    -9.8373  -9.7079  -9.6396  -9.6358  -9.3668  -9.1675  -9.0589  -8.8359
    -8.6711  -8.6250  -8.2390  -8.1146  -8.0220  -7.7555  -7.5557  -7.3757
    -7.2376  -7.1236  -6.7991  -6.7965  -6.7171  -6.6150  -6.5172  -6.1068
    -5.6582  -1.3533  -0.8099  -0.0630   0.1308   0.1797   0.2335   0.3555
     0.5527   0.6029   0.6767   0.7065   0.8363   0.8408   0.8687   0.9290
     0.9564   0.9860   0.9918   1.0064   1.0252   1.0487   1.1114   1.1126
     1.2093   1.2512   1.2638   1.2886   1.3269   1.3862   1.4576   1.5006

          k = 0.0833 0.0000 0.0000 ( 85357 PWs)   bands (ev):

   -22.6338 -22.5014 -22.2995 -22.0267 -21.6824 -21.2681 -20.7850 -20.2363
   -19.6267 -18.9667 -18.2829 -17.6769 -16.0876 -15.3580 -14.4829 -13.5435
   -12.5733 -11.5970 -10.6847 -10.6403 -10.5325 -10.2987 -10.1511 -10.0185
    -9.9831  -9.8153  -9.7420  -9.5876  -9.5350  -9.2309  -9.1159  -8.8977
    -8.8339  -8.5738  -8.3762  -8.2357  -7.9713  -7.8459  -7.7148  -7.3251
    -7.3075  -7.2842  -6.9491  -6.8924  -6.7489  -6.6662  -6.6012  -6.0549
    -5.6047  -1.3681  -0.8234  -0.0743   0.1904   0.2364   0.2893   0.4133
     0.6132   0.6634   0.6946   0.7679   0.8945   0.9006   0.9299   0.9896
     1.0181   1.0304   1.0478   1.0653   1.0871   1.1104   1.1731   1.1741
     1.2702   1.3128   1.3152   1.3493   1.3882   1.4478   1.5076   1.5614

          k = 0.1000 0.0000 0.0000 ( 85265 PWs)   bands (ev):

   -22.5796 -22.4472 -22.2454 -21.9727 -21.6288 -21.2147 -20.7321 -20.1839
   -19.5751 -18.9161 -18.2336 -17.6294 -16.0432 -15.3164 -14.4456 -13.5122
   -12.5507 -11.5871 -10.6510 -10.6198 -10.4678 -10.3646 -10.2343 -10.2307
   -10.0241  -9.9191  -9.8258  -9.6980  -9.5241  -9.4295  -9.0530  -9.0161
    -8.9944  -8.5186  -8.5115  -8.3947  -7.9452  -7.9094  -7.8929  -7.4552
    -7.4129  -7.2635  -7.1014  -7.0508  -6.8650  -6.7045  -6.6042  -5.9917
    -5.5395  -1.3882  -0.8421  -0.0913   0.2629   0.3052   0.3573   0.4839
     0.6869   0.7048   0.7373   0.8429   0.9653   0.9736   1.0046   1.0636
     1.0820   1.0935   1.1233   1.1373   1.1628   1.1858   1.2486   1.2494
     1.3446   1.3806   1.3879   1.4233   1.4632   1.5232   1.5628   1.6353

          k = 0.1167 0.0000 0.0000 ( 85289 PWs)   bands (ev):

   -22.5155 -22.3832 -22.1815 -21.9091 -21.5654 -21.1517 -20.6696 -20.1221
   -19.5142 -18.8564 -18.1755 -17.5732 -15.9913 -15.2679 -14.4025 -13.4769
   -12.5266 -11.5802 -10.6765 -10.6029 -10.5433 -10.4689 -10.3915 -10.2558
   -10.1583 -10.0155  -9.8437  -9.8050  -9.6477  -9.4492  -9.2074  -9.1344
    -8.9788  -8.6608  -8.5784  -8.4380  -8.0763  -8.0718  -7.8366  -7.6181
    -7.5717  -7.2581  -7.2336  -7.1910  -6.9722  -6.8259  -6.5313  -5.9171
    -5.4626  -1.4148  -0.8674  -0.1156   0.3482   0.3859   0.4375   0.5674
     0.7022   0.7738   0.8249   0.9316   1.0480   1.0598   1.0928   1.1493
     1.1505   1.1826   1.2125   1.2218   1.2521   1.2750   1.3376   1.3383
     1.4325   1.4605   1.4764   1.5107   1.5519   1.6123   1.6142   1.7230

          k = 0.1333 0.0000 0.0000 ( 85273 PWs)   bands (ev):

   -22.4416 -22.3094 -22.1079 -21.8357 -21.4923 -21.0791 -20.5976 -20.0509
   -19.4440 -18.7876 -18.1084 -17.5084 -15.9324 -15.2131 -14.3544 -13.4386
   -12.5032 -11.5807 -10.8692 -10.7283 -10.7235 -10.4994 -10.4552 -10.3037
   -10.2544 -10.0709  -9.9203  -9.8774  -9.7568  -9.3979  -9.3631  -9.3111
    -8.8935  -8.8161  -8.7688  -8.3536  -8.2463  -8.2445  -7.7808  -7.7565
    -7.7530  -7.4907  -7.3449  -7.1077  -7.0860  -6.9645  -6.4476  -5.8315
    -5.3740  -1.4492  -0.9006  -0.1489   0.4459   0.4782   0.5300   0.6640
     0.6829   0.8738   0.9262   1.0339   1.1407   1.1591   1.1947   1.2337
     1.2496   1.2854   1.3155   1.3180   1.3553   1.3779   1.4402   1.4410
     1.5339   1.5547   1.5766   1.6113   1.6496   1.6541   1.7151   1.8238

          k = 0.1500 0.0000 0.0000 ( 85215 PWs)   bands (ev):

   -22.3579 -22.2258 -22.0245 -21.7526 -21.4096 -20.9969 -20.5160 -19.9702
   -19.3646 -18.7097 -18.0326 -17.4351 -15.8669 -15.1527 -14.3022 -13.3992
   -12.4838 -11.5957 -11.1483 -11.0035 -10.8545 -10.7105 -10.5103 -10.3555
   -10.2043 -10.1095 -10.0757  -9.9721  -9.6587  -9.5885  -9.5042  -9.2658
    -9.0049  -8.9455  -8.7972  -8.4640  -8.3864  -8.2584  -8.0187  -7.8835
    -7.7265  -7.6587  -7.4482  -7.2111  -7.1191  -7.0140  -6.3533  -5.7350
    -5.2739  -1.4931  -0.9434  -0.1933   0.5555   0.5818   0.6351   0.6450
     0.7737   0.9868   1.0414   1.1498   1.2375   1.2716   1.3100   1.3346
     1.3584   1.4019   1.4235   1.4322   1.4722   1.4946   1.5564   1.5575
     1.6489   1.6498   1.6629   1.7051   1.7252   1.7701   1.8316   1.9381

          k = 0.1667 0.0000 0.0000 ( 85223 PWs)   bands (ev):

   -22.2645 -22.1325 -21.9314 -21.6598 -21.3172 -20.9051 -20.4250 -19.8802
   -19.2759 -18.6228 -17.9480 -17.3532 -15.7958 -15.0876 -14.2476 -13.3614
   -12.4738 -11.6376 -11.4410 -11.2879 -11.0998 -10.8615 -10.7717 -10.3376
   -10.2626 -10.2444 -10.0936  -9.8619  -9.7939  -9.6907  -9.5494  -9.2295
    -9.1575  -9.0957  -8.7063  -8.6901  -8.5149  -8.2561  -8.1526  -8.0790
    -7.8926  -7.5541  -7.5532  -7.3485  -7.2886  -6.9100  -6.2488  -5.6279
    -5.1623  -1.5478  -0.9974  -0.2504   0.5873   0.6760   0.6961   0.7533
     0.8966   1.1128   1.1704   1.2794   1.3142   1.3972   1.4389   1.4506
     1.4699   1.5322   1.5364   1.5626   1.6028   1.6249   1.6803   1.6860
     1.6877   1.7774   1.7836   1.8302   1.8522   1.8997   1.9617   2.0659

          k = 0.1833 0.0000 0.0000 ( 85223 PWs)   bands (ev):

   -22.1614 -22.0296 -21.8286 -21.5573 -21.2152 -20.8038 -20.3246 -19.7809
   -19.1781 -18.5271 -17.8548 -17.2629 -15.7200 -15.0193 -14.1930 -13.3297
   -12.4825 -11.7425 -11.7309 -11.5671 -11.3761 -11.0326 -11.0299 -10.5646
   -10.4575 -10.1219 -10.0212  -9.9715  -9.8575  -9.7406  -9.4692  -9.4290
    -9.2400  -9.0384  -8.9348  -8.6974  -8.5724  -8.4305  -8.3487  -8.0364
    -7.9905  -7.6642  -7.4982  -7.4716  -7.4393  -6.7961  -6.1344  -5.5104
    -5.0395  -1.6152  -1.0640  -0.3221   0.5091   0.8060   0.8208   0.8855
     1.0329   1.2517   1.3133   1.3151   1.4225   1.5359   1.5788   1.5814
     1.5874   1.6656   1.6762   1.7068   1.7472   1.7683   1.7689   1.8293
     1.8316   1.9123   1.9196   1.9731   1.9923   2.0429   2.1056   2.2078

          k = 0.2000 0.0000 0.0000 ( 85175 PWs)   bands (ev):

   -22.0486 -21.9169 -21.7162 -21.4453 -21.1037 -20.6930 -20.2147 -19.6724
   -19.0713 -18.4224 -17.7530 -17.1641 -15.6413 -14.9500 -14.1421 -13.3117
   -12.5238 -12.0472 -11.9324 -11.7918 -11.6543 -11.2812 -11.2278 -10.7961
   -10.6452 -10.2528 -10.0283  -9.9882  -9.8383  -9.6793  -9.6082  -9.4441
    -9.2977  -9.0865  -8.9590  -8.9085  -8.6392  -8.5232  -8.4443  -8.0759
    -7.9101  -7.7830  -7.6693  -7.6573  -7.3148  -6.6727  -6.0106  -5.3830
    -4.9057  -1.6966  -1.1448  -0.4096   0.4098   0.9442   0.9553   1.0325
     1.1828   1.2348   1.4036   1.4702   1.5793   1.6877   1.7128   1.7271
     1.7374   1.8157   1.8340   1.8647   1.9040   1.9053   1.9264   1.9860
     1.9891   2.0220   2.0753   2.1301   2.1454   2.1999   2.2213   2.2631

          k = 0.2167 0.0000 0.0000 ( 85145 PWs)   bands (ev):

   -21.9261 -21.7946 -21.5942 -21.3237 -20.9827 -20.5728 -20.0956 -19.5547
   -18.9555 -18.3091 -17.6427 -17.0569 -15.5620 -14.8832 -14.1013 -13.3191
   -12.6157 -12.3494 -12.2084 -11.9866 -11.9242 -11.5224 -11.4332 -11.0199
   -10.8442 -10.4438 -10.2571  -9.8434  -9.8055  -9.7160  -9.6941  -9.4649
    -9.2516  -9.1635  -9.1558  -8.9349  -8.7683  -8.5854  -8.3060  -8.1615
    -7.9102  -7.8752  -7.8301  -7.7741  -7.1809  -6.5404  -5.8780  -5.2463
    -4.7611  -1.7934  -1.2407  -0.5138   0.2895   1.0898   1.0989   1.1060
     1.1947   1.3464   1.5685   1.6411   1.7497   1.8020   1.8526   1.8860
     1.9069   1.9821   2.0056   2.0328   2.0364   2.0634   2.0772   2.0988
     2.1562   2.1602   2.2447   2.2960   2.3004   2.3115   2.3706   2.4344

          k = 0.2333 0.0000 0.0000 ( 85085 PWs)   bands (ev):

   -21.7941 -21.6627 -21.4627 -21.1926 -20.8523 -20.4432 -19.9672 -19.4279
   -18.8309 -18.1873 -17.5242 -16.9415 -15.4858 -14.8246 -14.0807 -13.3692
   -12.7720 -12.6387 -12.4871 -12.2001 -12.1779 -11.7443 -11.6548 -11.1987
   -11.0906 -10.5534 -10.5387 -10.0146  -9.8647  -9.6876  -9.5502  -9.5390
    -9.3109  -9.2828  -9.1595  -9.0033  -8.6388  -8.6178  -8.2508  -8.1579
    -8.0925  -8.0456  -8.0117  -7.6287  -7.0383  -6.3999  -5.7374  -5.1011
    -4.6061  -1.9066  -1.3523  -0.6351   0.1486   0.9446   1.2424   1.2509
     1.3720   1.5236   1.7057   1.7465   1.8260   1.9337   2.0306   2.0568
     2.0900   2.1310   2.1599   2.1910   2.2218   2.2339   2.2628   2.2832
     2.3400   2.3448   2.4278   2.4570   2.4761   2.4905   2.5271   2.5549

          k = 0.2500 0.0000 0.0000 ( 85013 PWs)   bands (ev):

   -21.6525 -21.5214 -21.3216 -21.0521 -20.7124 -20.3043 -19.8297 -19.2921
   -18.6975 -18.0571 -17.3978 -16.8178 -15.4187 -14.7832 -14.0961 -13.4784
   -12.9938 -12.8996 -12.7494 -12.4346 -12.4046 -11.9202 -11.9110 -11.3762
   -11.3030 -10.8399 -10.6051 -10.3127  -9.9518  -9.7898  -9.5737  -9.5210
    -9.3732  -9.2015  -9.1464  -8.8407  -8.6904  -8.4575  -8.3461  -8.3181
    -8.2033  -8.1879  -8.0005  -7.4746  -6.8876  -6.2520  -5.5899  -4.9484
    -4.4412  -2.0366  -1.4793  -0.7730  -0.0116   0.7578   1.4021   1.4103
     1.5074   1.5638   1.7147   1.9377   2.0248   2.1313   2.1634   2.2217
     2.2865   2.3008   2.3052   2.3826   2.3902   2.4209   2.4621   2.4793
     2.4816   2.5371   2.5430   2.6246   2.6370   2.6824   2.6843   2.7529

          k = 0.2667 0.0000 0.0000 ( 84929 PWs)   bands (ev):

   -21.5015 -21.3705 -21.1712 -20.9022 -20.5633 -20.1563 -19.6831 -19.1475
   -18.5557 -17.9189 -17.2637 -16.6863 -15.3700 -14.7729 -14.1662 -13.6509
   -13.2458 -13.1431 -12.9825 -12.6932 -12.5858 -12.1944 -12.0307 -11.6727
   -11.3647 -11.1237 -10.7252 -10.5073 -10.2214  -9.8832  -9.8310  -9.3438
    -9.2198  -9.1969  -8.9717  -8.7435  -8.6681  -8.5515  -8.4521  -8.3961
    -8.3400  -8.2877  -7.8342  -7.3123  -6.7297  -6.0978  -5.4371  -4.7901
    -4.2674  -2.1831  -1.6206  -0.9259  -0.1892   0.5504   1.2739   1.5684
     1.5766   1.7699   1.9195   1.9644   2.1420   2.2375   2.3423   2.4260
     2.4691   2.4816   2.4966   2.5804   2.6032   2.6339   2.6637   2.6718
     2.6751   2.6932   2.7477   2.7545   2.8351   2.8856   2.8872   2.8900

          k = 0.2833 0.0000 0.0000 ( 84887 PWs)   bands (ev):

   -21.3411 -21.2104 -21.0114 -20.7430 -20.4050 -19.9991 -19.5276 -18.9943
   -18.4056 -17.7730 -17.1227 -16.5471 -15.3533 -14.8118 -14.3029 -13.8748
   -13.4981 -13.3755 -13.1786 -12.9615 -12.7191 -12.4711 -12.1352 -11.9123
   -11.5518 -11.2410 -11.0120 -10.5319 -10.5145 -10.1936  -9.8210  -9.2338
    -9.1563  -9.0104  -8.8006  -8.7911  -8.7870  -8.6184  -8.5427  -8.4980
    -8.4859  -8.1089  -7.6596  -7.1427  -6.5656  -5.9391  -5.2810  -4.6285
    -4.0858  -2.3448  -1.7734  -1.0912  -0.3811   0.3267   1.0200   1.6909
     1.7409   1.7492   1.9899   2.1380   2.3233   2.3596   2.4641   2.5668
     2.6435   2.6885   2.7202   2.7507   2.7943   2.8300   2.8604   2.8605
     2.9018   2.9166   2.9716   2.9781   2.9792   3.0594   3.0885   3.1048

          k = 0.3000 0.0000 0.0000 ( 84855 PWs)   bands (ev):

   -21.1714 -21.0409 -20.8423 -20.5746 -20.2375 -19.8330 -19.3634 -18.8328
   -18.2477 -17.6203 -16.9760 -16.4010 -15.3853 -14.9141 -14.5004 -14.1339
   -13.7679 -13.5543 -13.3838 -13.1653 -12.9102 -12.6243 -12.3885 -11.9552
   -11.8547 -11.3267 -11.2169 -10.8442 -10.5304 -10.4514  -9.7999  -9.2473
    -9.0360  -8.9585  -8.8640  -8.8278  -8.8140  -8.6640  -8.6548  -8.5926
    -8.2946  -7.9216  -7.4774  -6.9668  -6.3969  -5.7778  -5.1249  -4.4680
    -3.8988  -2.5190  -1.9332  -1.2647  -0.5836   0.0908   0.7527   1.3984
     1.9190   1.9273   2.0196   2.2235   2.3702   2.5905   2.5951   2.7046
     2.8045   2.8743   2.9421   2.9557   2.9572   3.0446   3.0706   3.1009
     3.1099   3.1326   3.1421   3.2052   3.2088   3.2169   3.2976   3.3349

          k = 0.3167 0.0000 0.0000 ( 84825 PWs)   bands (ev):

   -20.9924 -20.8622 -20.6641 -20.3971 -20.0611 -19.6581 -19.1906 -18.6631
   -18.0827 -17.4619 -16.8258 -16.2493 -15.4777 -15.0777 -14.7407 -14.4151
   -14.0616 -13.6644 -13.6510 -13.2278 -13.2021 -12.6984 -12.6233 -12.1705
   -11.9131 -11.6378 -11.2124 -11.1013 -10.8228 -10.4165  -9.7741  -9.2849
    -9.2628  -9.0451  -8.9414  -8.8204  -8.7759  -8.7509  -8.6079  -8.3890
    -8.0946  -7.7265  -7.2886  -6.7859  -6.2256  -5.6169  -4.9732  -4.3156
    -3.7105  -2.7002  -2.0918  -1.4404  -0.7915  -0.1524   0.4772   1.0963
     1.6986   2.1019   2.1103   2.2684   2.4707   2.6160   2.7775   2.8347
     2.9590   3.0553   3.1184   3.1505   3.2074   3.2274   3.2358   3.3096
     3.3249   3.3550   3.3885   3.3959   3.4060   3.4591   3.4673   3.4974

          k = 0.3333 0.0000 0.0000 ( 84816 PWs)   bands (ev):

   -20.8043 -20.6744 -20.4769 -20.2107 -19.8759 -19.4746 -19.0097 -18.4860
   -17.9114 -17.2999 -16.6778 -16.0964 -15.6264 -15.2824 -15.0050 -14.7084
   -14.3673 -13.9733 -13.6767 -13.5077 -13.2150 -13.0033 -12.5979 -12.4501
   -11.9971 -11.7892 -11.4895 -11.1289 -11.0577 -10.3570  -9.7464  -9.5367
    -9.2889  -9.2601  -9.0615  -8.9473  -8.8983  -8.5338  -8.3925  -8.1766
    -7.8866  -7.5244  -7.0944  -6.6018  -6.0542  -5.4606  -4.8329  -4.1843
    -3.5290  -2.8786  -2.2353  -1.6093  -0.9987  -0.3979   0.1980   0.7900
     1.3718   1.9280   2.2889   2.2974   2.4317   2.7312   2.8438   2.8753
     3.0921   3.1127   3.2271   3.3187   3.3760   3.4533   3.4708   3.4947
     3.5636   3.5931   3.6227   3.6494   3.6629   3.6860   3.7224   3.7295

          k = 0.3500 0.0000 0.0000 ( 84842 PWs)   bands (ev):

   -20.6073 -20.4777 -20.2808 -20.0155 -19.6821 -19.2829 -18.8210 -18.3022
   -17.7357 -17.1391 -16.5478 -15.9599 -15.8053 -15.4891 -15.2768 -15.0053
   -14.6766 -14.2880 -13.8530 -13.6016 -13.3692 -13.0896 -12.8380 -12.4298
   -12.2981 -11.7965 -11.7027 -11.4313 -10.9698 -10.2916  -9.7904  -9.7187
    -9.4949  -9.3051  -9.2280  -9.0380  -9.0218  -8.3074  -8.1682  -7.9559
    -7.6712  -7.3164  -6.8963  -6.4168  -5.8862  -5.3147  -4.7144  -4.0975
    -3.3710  -3.0362  -2.3386  -1.7590  -1.1968  -0.6395  -0.0799   0.4835
     1.0438   1.5846   2.0777   2.4792   2.4819   2.4877   2.7426   3.0051
     3.1479   3.3626   3.5090   3.5940   3.6473   3.7271   3.7468   3.7683
     3.8414   3.8751   3.9039   3.9288   3.9426   3.9643   3.9983   4.0018

          k = 0.3667 0.0000 0.0000 ( 84882 PWs)   bands (ev):

   -20.4013 -20.2721 -20.0759 -19.8117 -19.4799 -19.0832 -18.6252 -18.1130
   -17.5589 -16.9906 -16.4880 -15.9581 -15.9329 -15.5843 -15.5345 -15.2946
   -14.9841 -14.6018 -14.1645 -13.6769 -13.5127 -13.1473 -12.9878 -12.6061
   -12.3181 -12.0977 -11.7379 -11.5818 -10.8720 -10.2229 -10.0451  -9.7226
    -9.6933  -9.4098  -9.3435  -9.1445  -9.1178  -8.0722  -7.9355  -7.7276
    -7.4494  -7.1038  -6.6963  -6.2339  -5.7266  -5.1872  -4.6325  -4.0897
    -3.2632  -3.1468  -2.3640  -1.8722  -1.3755  -0.8703  -0.3513   0.1810
     0.7182   1.2421   1.7231   2.1182   2.3717   2.6718   2.6804   3.2920
     3.4337   3.6460   3.8046   3.8801   3.9322   4.0151   4.0340   4.0572
     4.1331   4.1708   4.1977   4.2226   4.2305   4.2569   4.2793   4.2852

          k = 0.3833 0.0000 0.0000 ( 84890 PWs)   bands (ev):

   -20.1867 -20.0579 -19.8625 -19.5995 -19.2697 -18.8761 -18.4233 -17.9208
   -17.3884 -16.8846 -16.5872 -16.0681 -16.0351 -15.7123 -15.6185 -15.4341
   -15.2831 -14.9102 -14.4767 -13.9889 -13.4754 -13.3667 -12.9409 -12.8240
   -12.4141 -12.1670 -12.0300 -11.4591 -10.7681 -10.2998 -10.1529  -9.9519
    -9.6778  -9.5911  -9.4104  -9.2443  -9.2009  -7.8287  -7.6951  -7.4925
    -7.2223  -6.8882  -6.4969  -6.0572  -5.5820  -5.0888  -4.6046  -4.1824
    -3.2215  -3.1984  -2.2841  -1.9278  -1.5215  -1.0814  -0.6102  -0.1131
     0.3983   0.9035   1.3710   1.7561   2.0027   2.8656   2.8744   3.5920
     3.7325   3.9418   4.1136   4.1746   4.2280   4.3162   4.3250   4.3600
     4.4383   4.4738   4.4781   4.4810   4.5306   4.5385   4.5625   4.5631

          k = 0.4000 0.0000 0.0000 ( 84898 PWs)   bands (ev):

   -19.9635 -19.8353 -19.6407 -19.3793 -19.0519 -18.6624 -18.2172 -17.7307
   -17.2427 -16.8885 -16.8071 -16.1793 -16.1663 -15.8496 -15.7165 -15.5375
   -15.3016 -15.1862 -14.7832 -14.2966 -13.7712 -13.2267 -13.2239 -12.7067
   -12.6860 -12.3192 -12.0214 -11.3254 -10.6598 -10.5536 -10.1838 -10.0808
    -9.8005  -9.6432  -9.5187  -9.3110  -9.2838  -7.5773  -7.4475  -7.2515
    -6.9913  -6.6720  -6.3017  -5.8922  -5.4609  -5.0324  -4.6445  -4.3580
    -3.2240  -3.2131  -2.1160  -1.9094  -1.6191  -1.2618  -0.8492  -0.3938
     0.0878   0.5715   1.0235   1.3976   1.6371   3.0595   3.0684   3.9048
     4.0439   4.2482   4.4329   4.4376   4.4863   4.4903   4.5771   4.6296
     4.6532   4.6760   4.7565   4.7997   4.8342   4.8409   4.8524   4.8844

          k = 0.4167 0.0000 0.0000 ( 84958 PWs)   bands (ev):

   -19.7320 -19.6044 -19.4110 -19.1514 -18.8273 -18.4435 -18.0101 -17.5540
   -17.1678 -17.0704 -17.0364 -16.3175 -16.2603 -15.9464 -15.8896 -15.5150
   -15.4899 -15.0787 -15.0694 -14.5970 -14.0710 -13.5225 -13.0592 -12.9903
   -12.6088 -12.5124 -11.8625 -11.1850 -10.8056 -10.5487 -10.4129 -10.0128
    -9.9923  -9.6525  -9.6379  -9.3676  -9.3554  -7.3187  -7.1935  -7.0057
    -6.7583  -6.4578  -6.1152  -5.7461  -5.3738  -5.0298  -4.7533  -4.5834
    -3.2345  -3.2237  -1.8953  -1.8157  -1.6537  -1.3982  -1.0589  -0.6549
    -0.2093   0.2489   0.6828   1.0442   1.2759   3.2518   3.2607   4.2301
     4.3667   4.4398   4.4570   4.5748   4.7294   4.7620   4.8436   4.8653
     4.9547   4.9609   5.0047   5.0345   5.0876   5.1423   5.1724   5.1907

          k = 0.4333 0.0000 0.0000 ( 84990 PWs)   bands (ev):

   -19.4925 -19.3656 -19.1736 -18.9165 -18.5968 -18.2218 -17.8094 -17.4196
   -17.3473 -17.2671 -17.2276 -16.4209 -16.3626 -16.1048 -15.8953 -15.7318
   -15.4169 -15.2570 -14.9215 -14.8332 -14.3642 -13.8128 -13.2846 -12.8839
   -12.8629 -12.3349 -11.6949 -11.0552 -11.0394 -10.6415 -10.4365 -10.1869
    -9.9509  -9.7924  -9.6507  -9.4336  -9.4001  -7.0535  -6.9342  -6.7567
    -6.5256  -6.2497  -5.9435  -5.6279  -5.3315  -5.0869  -4.9193  -4.8361
    -3.2452  -3.2346  -1.6666  -1.6610  -1.6035  -1.4724  -1.2258  -0.8876
    -0.4876  -0.0609   0.3511   0.6975   0.9200   3.4399   3.4493   4.3851
     4.4719   4.5689   4.6491   4.7337   4.8631   4.9436   5.1320   5.1476
     5.1834   5.2492   5.2903   5.3454   5.3700   5.4312   5.4925   5.4952

          k = 0.4500 0.0000 0.0000 ( 84972 PWs)   bands (ev):

   -19.2451 -19.1192 -18.9291 -18.6754 -18.3622 -18.0020 -17.6349 -17.6261
   -17.5280 -17.4087 -17.3867 -16.5061 -16.4581 -16.1175 -16.0864 -15.6654
   -15.6159 -15.1792 -15.0753 -14.6473 -14.6396 -14.0956 -13.5625 -13.1558
   -12.6644 -12.1447 -11.5205 -11.3014 -10.8906 -10.8676 -10.3902 -10.3154
    -9.9707  -9.8602  -9.6965  -9.4750  -9.4419  -6.7826  -6.6706  -6.5064
    -6.2965  -6.0527  -5.7945  -5.5476  -5.3423  -5.2013  -5.1264  -5.1032
    -3.2550  -3.2445  -1.5466  -1.5432  -1.4163  -1.3873  -1.3041  -1.0767
    -0.7387  -0.3531   0.0311   0.3591   0.5705   3.6198   3.6308   4.3356
     4.5000   4.5510   4.9004   4.9375   5.0571   5.0584   5.2908   5.4577
     5.4951   5.5184   5.6098   5.6350   5.6970   5.7145   5.7868   5.8217

          k = 0.4667 0.0000 0.0000 ( 84948 PWs)   bands (ev):

   -18.9904 -18.8658 -18.6781 -18.4293 -18.1268 -17.9094 -17.8043 -17.7889
   -17.6460 -17.5205 -17.4964 -16.5862 -16.4903 -16.2678 -16.0168 -15.8617
   -15.5029 -15.3543 -14.9563 -14.8198 -14.4291 -14.3556 -13.8336 -13.4211
   -12.4555 -11.9462 -11.5437 -11.3402 -11.0925 -10.7372 -10.5811 -10.2071
   -10.1142  -9.8145  -9.7736  -9.4927  -9.4801  -6.5069  -6.4044  -6.2573
    -6.0750  -5.8737  -5.6774  -5.5147  -5.4100  -5.3854  -5.3624  -5.3519
    -3.2627  -3.2523  -1.4899  -1.4848  -1.3178  -1.2856  -1.1282  -1.0727
    -0.9363  -0.6192  -0.2731   0.0308   0.2282   3.7859   3.7983   4.3038
     4.4037   4.5776   4.7701   5.1502   5.2841   5.3306   5.4537   5.6353
     5.7480   5.8718   5.9802   5.9859   6.0495   6.0576   6.0603   6.1217

          k = 0.4833 0.0000 0.0000 ( 85012 PWs)   bands (ev):

   -18.7288 -18.6059 -18.4218 -18.1874 -18.1809 -18.0703 -17.9090 -17.8891
   -17.7004 -17.6229 -17.5409 -16.5966 -16.5763 -16.2022 -16.1919 -15.7291
   -15.7082 -15.2009 -15.1542 -14.6406 -14.6038 -14.1742 -14.0962 -13.6793
   -12.2378 -11.7809 -11.7409 -11.3131 -11.1554 -10.7747 -10.5832 -10.2677
   -10.0984  -9.8665  -9.7732  -9.5163  -9.4935  -6.2276  -6.1373  -6.0128
    -5.8671  -5.7211  -5.6638  -5.6124  -5.6026  -5.5607  -5.5307  -5.5183
    -3.2677  -3.2573  -1.4661  -1.4544  -1.2778  -1.2324  -1.0405  -0.9531
    -0.8020  -0.7534  -0.5493  -0.2834  -0.1055   3.9250   3.9352   4.2818
     4.3010   4.6176   4.6475   5.2113   5.2510   5.6566   5.8015   5.9524
     5.9708   6.0126   6.2644   6.3331   6.3384   6.3683   6.4238   6.4367

          k = 0.5000 0.0000 0.0000 ( 84998 PWs)   bands (ev):

   -18.4625 -18.4592 -18.3428 -18.3379 -18.1672 -18.1565 -17.9444 -17.9230
   -17.7042 -17.6724 -17.5537 -16.6443 -16.5339 -16.3236 -16.0587 -15.9072
   -15.5279 -15.3990 -14.9573 -14.8497 -14.3949 -14.3152 -13.9478 -13.9140
   -12.0177 -12.0076 -11.5340 -11.5250 -10.9731 -10.9599 -10.4487 -10.4023
   -10.0227  -9.9374  -9.7565  -9.5295  -9.4947  -5.9477  -5.9442  -5.8740
    -5.8700  -5.7803  -5.7748  -5.6824  -5.6782  -5.6126  -5.5956  -5.5726
    -3.2693  -3.2590  -1.4600  -1.4444  -1.2682  -1.2140  -1.0162  -0.9212
    -0.7533  -0.6400  -0.5337  -0.4463  -0.4110   3.9807   4.0110   4.2119
     4.3142   4.5413   4.6850   5.1490   5.2974   5.8964   6.0414   6.0515
     6.0616   6.1741   6.1950   6.3528   6.4108   6.5385   6.6636   6.6797

     Writing output data file ZGNR12.save

     init_run     :     17.28s CPU     18.69s WALL (       1 calls)
     electrons    :  18643.05s CPU  18737.12s WALL (       1 calls)

     Called by init_run:
     wfcinit      :      0.00s CPU      0.00s WALL (       1 calls)
     potinit      :      2.95s CPU      3.48s WALL (       1 calls)

     Called by electrons:
     c_bands      :  18643.05s CPU  18737.12s WALL (       1 calls)
     v_of_rho     :      1.84s CPU      2.15s WALL (       1 calls)
     newd         :      5.67s CPU      6.31s WALL (       1 calls)
     PAW_pot      :      0.82s CPU      0.82s WALL (       1 calls)

     Called by c_bands:
     init_us_2    :      1.32s CPU      1.54s WALL (      31 calls)
     cegterg      :  18182.27s CPU  18262.35s WALL (     181 calls)

     Called by sum_band:

     Called by *egterg:
     h_psi        :   7434.89s CPU   7444.95s WALL (    3767 calls)
     s_psi        :   2071.21s CPU   2072.49s WALL (    3767 calls)
     g_psi        :     18.33s CPU     18.35s WALL (    3555 calls)
     cdiaghg      :    120.12s CPU    120.21s WALL (    3586 calls)

     Called by h_psi:
     h_psi:pot    :   7415.99s CPU   7424.97s WALL (    3767 calls)
     h_psi:calbec :   2141.20s CPU   2142.62s WALL (    3767 calls)
     vloc_psi     :   3202.99s CPU   3209.33s WALL (    3767 calls)
     add_vuspsi   :   2071.75s CPU   2073.00s WALL (    3767 calls)

     General routines
     calbec       :   2141.18s CPU   2142.61s WALL (    3767 calls)
     fft          :      1.13s CPU      1.31s WALL (      13 calls)
     ffts         :      0.02s CPU      0.03s WALL (       1 calls)
     fftw         :   2670.77s CPU   2675.37s WALL (  176610 calls)
     interpolate  :      0.11s CPU      0.17s WALL (       1 calls)
     davcio       :      0.34s CPU     11.06s WALL (      31 calls)

     Parallel routines
     fft_scatter  :    316.65s CPU    318.00s WALL (  176624 calls)

     PWSCF        :     5h11m CPU        5h12m WALL


   This run was terminated on:  20: 3: 1   4Apr2019            

=------------------------------------------------------------------------------=
   JOB DONE.
=------------------------------------------------------------------------------=
