
     Program PWSCF v.6.0 (svn rev. 13079) starts on  4Apr2019 at 12:29:50 

     This program is part of the open-source Quantum ESPRESSO suite
     for quantum simulation of materials; please cite
         "P. Giannozzi et al., J. Phys.:Condens. Matter 21 395502 (2009);
          URL http://www.quantum-espresso.org", 
     in publications or presentations arising from this work. More details at
     http://www.quantum-espresso.org/quote

     Parallel version (MPI), running on     1 processors
     Waiting for input...
     Reading input from standard input

     Current dimensions of program PWSCF are:
     Max number of different atomic species (ntypx) = 10
     Max number of k-points (npk) =  40000
     Max angular momentum in pseudopotentials (lmaxx) =  3
               file C.pbe-n-kjpaw_psl.0.1.UPF: wavefunction(s)  2P renormalized
               file H.pbe-kjpaw_psl.0.1.UPF: wavefunction(s)  1S renormalized

     Subspace diagonalization in iterative solution of the eigenvalue problem:
     a serial algorithm will be used


     G-vector sticks info
     --------------------
     sticks:   dense  smooth     PW     G-vecs:    dense   smooth      PW
     Sum       15077    6747   2075              2295449   681651  115295



     bravais-lattice index     =            0
     lattice parameter (alat)  =       4.6487  a.u.
     unit-cell volume          =   19921.0837 (a.u.)^3
     number of atoms/cell      =           26
     number of atomic types    =            2
     number of electrons       =        98.00
     number of Kohn-Sham states=           80
     kinetic-energy cutoff     =      40.0000  Ry
     charge density cutoff     =     360.0000  Ry
     convergence threshold     =      1.0E-06
     mixing beta               =       0.7000
     number of iterations used =            8  plain     mixing
     Exchange-correlation      =  SLA  PW   PBX  PBC ( 1  4  3  4 0 0)

     celldm(1)=   4.648726  celldm(2)=   0.000000  celldm(3)=   0.000000
     celldm(4)=   0.000000  celldm(5)=   0.000000  celldm(6)=   0.000000

     crystal axes: (cart. coord. in units of alat)
               a(1) = (   1.000000   0.000000   0.000000 )  
               a(2) = (   0.000000  24.390244   0.000000 )  
               a(3) = (   0.000000   0.000000   8.130081 )  

     reciprocal axes: (cart. coord. in units 2 pi/alat)
               b(1) = (  1.000000  0.000000  0.000000 )  
               b(2) = (  0.000000  0.041000  0.000000 )  
               b(3) = (  0.000000  0.000000  0.123000 )  


     PseudoPot. # 1 for  C read from file:
     /mnt/hgfs/Linux_NTNU/QE_docs/PSEUDO_POTENTIALS/C.pbe-n-kjpaw_psl.0.1.UPF
     MD5 check sum: bf2aebf1cd97aced799cfc3ffd9ff9ea
     Pseudo is Projector augmented-wave + core cor, Zval =  4.0
     Generated using "atomic" code by A. Dal Corso  v.5.0.2 svn rev. 9415
     Shape of augmentation charge: BESSEL
     Using radial grid of 1073 points,  4 beta functions with: 
                l(1) =   0
                l(2) =   0
                l(3) =   1
                l(4) =   1
     Q(r) pseudized with 0 coefficients 


     PseudoPot. # 2 for  H read from file:
     /mnt/hgfs/Linux_NTNU/QE_docs/PSEUDO_POTENTIALS/H.pbe-kjpaw_psl.0.1.UPF
     MD5 check sum: fbb168fef676c0aaadbafd73f5b1efa8
     Pseudo is Projector augmented-wave, Zval =  1.0
     Generated using "atomic" code by A. Dal Corso  v.5.0.2 svn rev. 9415
     Shape of augmentation charge: PSQ
     Using radial grid of  929 points,  2 beta functions with: 
                l(1) =   0
                l(2) =   0
     Q(r) pseudized with 0 coefficients 


     atomic species   valence    mass     pseudopotential
        C              4.00    12.01100      C( 1.00)
        H              1.00     1.00000      H( 1.00)

      2 Sym. Ops. (no inversion) found



   Cartesian axes

     site n.     atom                  positions (alat units)
         1           C   tau(   1) = (   0.0000000   0.0000000   0.0000000  )
         2           C   tau(   2) = (   0.4999008   0.2886179   0.0000000  )
         3           C   tau(   3) = (   0.0000000  -0.5772358   0.0000000  )
         4           C   tau(   4) = (   0.4999008  -0.8658537   0.0000000  )
         5           C   tau(   5) = (   0.0000000  -1.7317073   0.0000000  )
         6           C   tau(   6) = (   0.4999008  -1.4430894   0.0000000  )
         7           C   tau(   7) = (   0.0000000  -2.3089431   0.0000000  )
         8           C   tau(   8) = (   0.4999008  -2.5975610   0.0000000  )
         9           C   tau(   9) = (   0.0000000  -3.4634146   0.0000000  )
        10           C   tau(  10) = (   0.4999008  -3.1747967   0.0000000  )
        11           C   tau(  11) = (   0.0000000  -4.0406504   0.0000000  )
        12           C   tau(  12) = (   0.4999008  -4.3292683   0.0000000  )
        13           C   tau(  13) = (   0.0000000  -5.1951220   0.0000000  )
        14           C   tau(  14) = (   0.4999008  -4.9065041   0.0000000  )
        15           C   tau(  15) = (   0.0000000  -5.7723577   0.0000000  )
        16           C   tau(  16) = (   0.4999008  -6.0609756   0.0000000  )
        17           C   tau(  17) = (   0.0000000  -6.9268293   0.0000000  )
        18           C   tau(  18) = (   0.4999008  -6.6382114   0.0000000  )
        19           C   tau(  19) = (   0.0000000  -7.5040650   0.0000000  )
        20           C   tau(  20) = (   0.4999008  -7.7926829   0.0000000  )
        21           C   tau(  21) = (   0.0000000  -8.6585366   0.0000000  )
        22           C   tau(  22) = (   0.4999008  -8.3699187   0.0000000  )
        23           C   tau(  23) = (   0.0000000  -9.2357724   0.0000000  )
        24           C   tau(  24) = (   0.4999008  -9.5243902   0.0000000  )
        25           H   tau(  25) = (   0.4999008   0.7357724   0.0000000  )
        26           H   tau(  26) = (   0.4999008  -9.9715447   0.0000000  )

     number of k points=    11  gaussian smearing, width (Ry)=  0.0300
                       cart. coord. in units 2pi/alat
        k(    1) = (   0.0000000   0.0000000   0.0000000), wk =   0.1000000
        k(    2) = (   0.0500000   0.0000000   0.0000000), wk =   0.2000000
        k(    3) = (   0.1000000   0.0000000   0.0000000), wk =   0.2000000
        k(    4) = (   0.1500000   0.0000000   0.0000000), wk =   0.2000000
        k(    5) = (   0.2000000   0.0000000   0.0000000), wk =   0.2000000
        k(    6) = (   0.2500000   0.0000000   0.0000000), wk =   0.2000000
        k(    7) = (   0.3000000   0.0000000   0.0000000), wk =   0.2000000
        k(    8) = (   0.3500000   0.0000000   0.0000000), wk =   0.2000000
        k(    9) = (   0.4000000   0.0000000   0.0000000), wk =   0.2000000
        k(   10) = (   0.4500000   0.0000000   0.0000000), wk =   0.2000000
        k(   11) = (  -0.5000000   0.0000000   0.0000000), wk =   0.1000000

     Dense  grid:  2295449 G-vectors     FFT dimensions: (  30, 720, 240)

     Smooth grid:   681651 G-vectors     FFT dimensions: (  20, 480, 160)

     Estimated max dynamical RAM per process >    3633.72Mb

     Initial potential from superposition of free atoms
     Check: negative starting charge=   -0.000537

     starting charge   97.99898, renormalised to   98.00000

     negative rho (up, down):  5.374E-04 0.000E+00
     Starting wfc are   98 randomized atomic wfcs
     Checking if some PAW data can be deallocated... 

     total cpu time spent up to now is      193.0 secs

     Self-consistent Calculation

     iteration #  1     ecut=    40.00 Ry     beta=0.70
     Davidson diagonalization with overlap
     ethr =  1.00E-02,  avg # of iterations =  6.3

     total cpu time spent up to now is      954.4 secs

     total energy              =    -444.48660476 Ry
     Harris-Foulkes estimate   =    -446.10604301 Ry
     estimated scf accuracy    <       2.59344965 Ry

     iteration #  2     ecut=    40.00 Ry     beta=0.70
     Davidson diagonalization with overlap
     ethr =  2.65E-03,  avg # of iterations =  9.9

     total cpu time spent up to now is     1556.2 secs

     total energy              =    -444.77370725 Ry
     Harris-Foulkes estimate   =    -444.82680681 Ry
     estimated scf accuracy    <       0.09181603 Ry

     iteration #  3     ecut=    40.00 Ry     beta=0.70
     Davidson diagonalization with overlap
     c_bands:  5 eigenvalues not converged
     ethr =  9.37E-05,  avg # of iterations = 18.2

     negative rho (up, down):  7.442E-07 0.000E+00

     total cpu time spent up to now is     2835.9 secs

     total energy              =    -444.87693533 Ry
     Harris-Foulkes estimate   =    -445.03817070 Ry
     estimated scf accuracy    <       0.63276109 Ry

     iteration #  4     ecut=    40.00 Ry     beta=0.70
     Davidson diagonalization with overlap
     ethr =  9.37E-05,  avg # of iterations = 11.6

     negative rho (up, down):  6.451E-06 0.000E+00

     total cpu time spent up to now is     3644.1 secs

     total energy              =    -444.92445039 Ry
     Harris-Foulkes estimate   =    -445.02253941 Ry
     estimated scf accuracy    <       0.58122742 Ry

     iteration #  5     ecut=    40.00 Ry     beta=0.70
     Davidson diagonalization with overlap
     ethr =  9.37E-05,  avg # of iterations = 13.6

     negative rho (up, down):  2.477E-05 0.000E+00

     total cpu time spent up to now is     4275.6 secs

     total energy              =    -444.94614197 Ry
     Harris-Foulkes estimate   =    -444.97050170 Ry
     estimated scf accuracy    <       0.10142714 Ry

     iteration #  6     ecut=    40.00 Ry     beta=0.70
     Davidson diagonalization with overlap
     ethr =  9.37E-05,  avg # of iterations =  9.6

     negative rho (up, down):  8.403E-05 0.000E+00

     total cpu time spent up to now is     4706.3 secs

     total energy              =    -444.95628147 Ry
     Harris-Foulkes estimate   =    -444.96289888 Ry
     estimated scf accuracy    <       0.02730976 Ry

     iteration #  7     ecut=    40.00 Ry     beta=0.70
     Davidson diagonalization with overlap
     ethr =  2.79E-05,  avg # of iterations =  9.7

     negative rho (up, down):  2.392E-04 0.000E+00

     total cpu time spent up to now is     5121.5 secs

     total energy              =    -444.95936521 Ry
     Harris-Foulkes estimate   =    -444.96080218 Ry
     estimated scf accuracy    <       0.00416318 Ry

     iteration #  8     ecut=    40.00 Ry     beta=0.70
     Davidson diagonalization with overlap
     c_bands:  1 eigenvalues not converged
     ethr =  4.25E-06,  avg # of iterations = 14.7

     negative rho (up, down):  2.842E-04 0.000E+00

     total cpu time spent up to now is     5760.9 secs

     total energy              =    -444.96049362 Ry
     Harris-Foulkes estimate   =    -444.96123848 Ry
     estimated scf accuracy    <       0.00208164 Ry

     iteration #  9     ecut=    40.00 Ry     beta=0.70
     Davidson diagonalization with overlap
     c_bands:  1 eigenvalues not converged
     ethr =  2.12E-06,  avg # of iterations =  4.6

     negative rho (up, down):  2.790E-04 0.000E+00

     total cpu time spent up to now is     6128.9 secs

     total energy              =    -444.96069286 Ry
     Harris-Foulkes estimate   =    -444.96084789 Ry
     estimated scf accuracy    <       0.00061106 Ry

     iteration # 10     ecut=    40.00 Ry     beta=0.70
     Davidson diagonalization with overlap
     ethr =  6.24E-07,  avg # of iterations =  2.7

     negative rho (up, down):  2.660E-04 0.000E+00

     total cpu time spent up to now is     6482.3 secs

     total energy              =    -444.96073529 Ry
     Harris-Foulkes estimate   =    -444.96078834 Ry
     estimated scf accuracy    <       0.00013812 Ry

     iteration # 11     ecut=    40.00 Ry     beta=0.70
     Davidson diagonalization with overlap
     ethr =  1.41E-07,  avg # of iterations =  5.5

     negative rho (up, down):  2.784E-04 0.000E+00

     total cpu time spent up to now is     7071.9 secs

     total energy              =    -444.96081531 Ry
     Harris-Foulkes estimate   =    -444.96083752 Ry
     estimated scf accuracy    <       0.00006555 Ry

     iteration # 12     ecut=    40.00 Ry     beta=0.70
     Davidson diagonalization with overlap
     ethr =  6.69E-08,  avg # of iterations =  1.5

     negative rho (up, down):  2.912E-04 0.000E+00

     total cpu time spent up to now is     7394.6 secs

     total energy              =    -444.96081344 Ry
     Harris-Foulkes estimate   =    -444.96082383 Ry
     estimated scf accuracy    <       0.00003049 Ry

     iteration # 13     ecut=    40.00 Ry     beta=0.70
     Davidson diagonalization with overlap
     ethr =  3.11E-08,  avg # of iterations =  3.9

     negative rho (up, down):  2.939E-04 0.000E+00

     total cpu time spent up to now is     7780.7 secs

     total energy              =    -444.96081728 Ry
     Harris-Foulkes estimate   =    -444.96082541 Ry
     estimated scf accuracy    <       0.00004329 Ry

     iteration # 14     ecut=    40.00 Ry     beta=0.70
     Davidson diagonalization with overlap
     ethr =  3.11E-08,  avg # of iterations =  1.0

     negative rho (up, down):  2.937E-04 0.000E+00

     total cpu time spent up to now is     8102.3 secs

     total energy              =    -444.96082004 Ry
     Harris-Foulkes estimate   =    -444.96082439 Ry
     estimated scf accuracy    <       0.00004693 Ry

     iteration # 15     ecut=    40.00 Ry     beta=0.70
     Davidson diagonalization with overlap
     ethr =  3.11E-08,  avg # of iterations =  1.0

     negative rho (up, down):  2.946E-04 0.000E+00

     total cpu time spent up to now is     8426.8 secs

     End of self-consistent calculation

          k = 0.0000 0.0000 0.0000 ( 85433 PWs)   bands (ev):

   -22.7555 -22.6237 -22.4211 -22.1488 -21.8045 -21.3891 -20.9047 -20.3543
   -19.7430 -19.0806 -18.3940 -17.7838 -16.1889 -15.4535 -14.5692 -13.6174
   -12.6295 -11.6284 -10.8310 -10.6792 -10.6354 -10.4444 -10.1288  -9.7324
    -9.6739  -9.6225  -9.4916  -9.2939  -9.2592  -9.0346  -8.7703  -8.7168
    -8.7156  -8.3502  -8.1119  -7.9533  -7.9484  -7.5308  -7.4653  -7.2543
    -7.1232  -6.8070  -6.7577  -6.7143  -6.4753  -6.3797  -6.3148  -6.1988
    -5.7522  -1.3296  -0.7895  -0.0482   0.0248   0.0785   0.1346   0.2529
     0.4451   0.4959   0.5977   0.6246   0.7324   0.7342   0.7602   0.8212
     0.8472   0.8762   0.9019   0.9150   0.9267   0.9413   1.0015   1.0031
     1.1011   1.1418   1.1796   1.1805   1.2181   1.2766   1.3628   1.3928

          k = 0.0500 0.0000 0.0000 ( 85419 PWs)   bands (ev):

   -22.7110 -22.5793 -22.3768 -22.1046 -21.7605 -21.3454 -20.8614 -20.3114
   -19.7007 -19.0391 -18.3536 -17.7448 -16.1517 -15.4185 -14.5374 -13.5899
   -12.6080 -11.6150 -10.7778 -10.6337 -10.6261 -10.3915 -10.0762  -9.8192
    -9.7004  -9.6802  -9.6774  -9.4888  -9.2253  -9.2074  -8.9195  -8.7953
    -8.6643  -8.5353  -8.1181  -8.0609  -8.0333  -7.6687  -7.4244  -7.4145
    -7.1878  -6.9834  -6.7558  -6.7410  -6.6666  -6.4892  -6.4517  -6.1466
    -5.6986  -1.3417  -0.8000  -0.0551   0.0846   0.1357   0.1906   0.3106
     0.5057   0.5563   0.6571   0.6591   0.7908   0.7941   0.8213   0.8819
     0.9089   0.9379   0.9607   0.9637   0.9769   1.0010   1.0633   1.0647
     1.1620   1.2034   1.2258   1.2412   1.2794   1.3383   1.4171   1.4537

          k = 0.1000 0.0000 0.0000 ( 85265 PWs)   bands (ev):

   -22.5778 -22.4462 -22.2440 -21.9722 -21.6287 -21.2144 -20.7314 -20.1829
   -19.5739 -18.9148 -18.2325 -17.6280 -16.0418 -15.3154 -14.4445 -13.5113
   -12.5494 -11.5854 -10.6491 -10.6185 -10.4672 -10.3626 -10.2333 -10.2295
   -10.0225  -9.9190  -9.8247  -9.6964  -9.5241  -9.4291  -9.0527  -9.0153
    -8.9929  -8.5175  -8.5109  -8.3936  -7.9446  -7.9087  -7.8921  -7.4537
    -7.4119  -7.2628  -7.1003  -7.0497  -6.8636  -6.7028  -6.6033  -5.9910
    -5.5384  -1.3871  -0.8416  -0.0905   0.2631   0.3054   0.3578   0.4839
     0.6868   0.7052   0.7377   0.8432   0.9652   0.9734   1.0048   1.0637
     1.0820   1.0938   1.1233   1.1375   1.1626   1.1858   1.2486   1.2494
     1.3446   1.3808   1.3881   1.4231   1.4634   1.5233   1.5630   1.6356

          k = 0.1500 0.0000 0.0000 ( 85215 PWs)   bands (ev):

   -22.3561 -22.2248 -22.0231 -21.7521 -21.4095 -20.9965 -20.5154 -19.9692
   -19.3634 -18.7084 -18.0315 -17.4337 -15.8655 -15.1517 -14.3011 -13.3983
   -12.4825 -11.5939 -11.1463 -11.0023 -10.8529 -10.7087 -10.5099 -10.3541
   -10.2037 -10.1093 -10.0737  -9.9711  -9.6585  -9.5877  -9.5025  -9.2659
    -9.0039  -8.9441  -8.7970  -8.4633  -8.3855  -8.2578  -8.0177  -7.8820
    -7.7254  -7.6580  -7.4471  -7.2099  -7.1176  -7.0133  -6.3524  -5.7343
    -5.2727  -1.4919  -0.9428  -0.1925   0.5562   0.5819   0.6356   0.6455
     0.7736   0.9867   1.0417   1.1501   1.2376   1.2714   1.3102   1.3345
     1.3584   1.4023   1.4238   1.4322   1.4720   1.4946   1.5567   1.5573
     1.6489   1.6506   1.6631   1.7054   1.7250   1.7703   1.8317   1.9384

          k = 0.2000 0.0000 0.0000 ( 85175 PWs)   bands (ev):

   -22.0468 -21.9159 -21.7148 -21.4448 -21.1037 -20.6926 -20.2141 -19.6713
   -19.0701 -18.4212 -17.7519 -17.1627 -15.6399 -14.9490 -14.1410 -13.3108
   -12.5227 -12.0452 -11.9309 -11.7905 -11.6532 -11.2810 -11.2260 -10.7958
   -10.6431 -10.2519 -10.0263  -9.9868  -9.8377  -9.6784  -9.6072  -9.4424
    -9.2976  -9.0855  -8.9581  -8.9086  -8.6376  -8.5220  -8.4440  -8.0750
    -7.9095  -7.7818  -7.6663  -7.6576  -7.3140  -6.6720  -6.0097  -5.3823
    -4.9046  -1.6954  -1.1442  -0.4087   0.4104   0.9465   0.9545   1.0327
     1.1826   1.2354   1.4035   1.4706   1.5797   1.6874   1.7133   1.7265
     1.7376   1.8160   1.8344   1.8647   1.9042   1.9052   1.9264   1.9863
     1.9890   2.0225   2.0754   2.1303   2.1453   2.2001   2.2218   2.2633

          k = 0.2500 0.0000 0.0000 ( 85013 PWs)   bands (ev):

   -21.6507 -21.5204 -21.3202 -21.0516 -20.7123 -20.3039 -19.8290 -19.2911
   -18.6963 -18.0558 -17.3967 -16.8165 -15.4173 -14.7822 -14.0949 -13.4777
   -12.9928 -12.8977 -12.7481 -12.4335 -12.4035 -11.9197 -11.9099 -11.3750
   -11.3018 -10.8387 -10.6033 -10.3116  -9.9501  -9.7890  -9.5723  -9.5196
    -9.3726  -9.1999  -9.1455  -8.8405  -8.6890  -8.4576  -8.3450  -8.3164
    -8.2015  -8.1880  -8.0003  -7.4740  -6.8868  -6.2512  -5.5890  -4.9477
    -4.4401  -2.0354  -1.4786  -0.7721  -0.0110   0.7585   1.4066   1.4079
     1.5081   1.5639   1.7144   1.9375   2.0251   2.1316   2.1638   2.2214
     2.2868   2.3019   2.3040   2.3829   2.3906   2.4210   2.4620   2.4795
     2.4816   2.5375   2.5429   2.6247   2.6374   2.6824   2.6847   2.7530

          k = 0.3000 0.0000 0.0000 ( 84855 PWs)   bands (ev):

   -21.1695 -21.0399 -20.8409 -20.5741 -20.2374 -19.8326 -19.3627 -18.8317
   -18.2465 -17.6190 -16.9748 -16.3996 -15.3839 -14.9130 -14.4990 -14.1333
   -13.7674 -13.5526 -13.3826 -13.1646 -12.9090 -12.6233 -12.3873 -11.9542
   -11.8535 -11.3254 -11.2155 -10.8433 -10.5284 -10.4504  -9.7983  -9.2456
    -9.0343  -8.9572  -8.8623  -8.8267  -8.8133  -8.6602  -8.6572  -8.5917
    -8.2944  -7.9217  -7.4772  -6.9663  -6.3962  -5.7770  -5.1239  -4.4672
    -3.8978  -2.5178  -1.9325  -1.2638  -0.5829   0.0915   0.7535   1.3990
     1.9242   1.9246   2.0199   2.2235   2.3699   2.5903   2.5954   2.7050
     2.8048   2.8739   2.9426   2.9553   2.9574   3.0449   3.0709   3.1009
     3.1105   3.1329   3.1419   3.2055   3.2092   3.2170   3.2976   3.3354

          k = 0.3500 0.0000 0.0000 ( 84842 PWs)   bands (ev):

   -20.6054 -20.4767 -20.2793 -20.0150 -19.6820 -19.2825 -18.8203 -18.3011
   -17.7345 -17.1378 -16.5465 -15.9587 -15.8041 -15.4877 -15.2752 -15.0046
   -14.6762 -14.2873 -13.8519 -13.6001 -13.3679 -13.0888 -12.8368 -12.4287
   -12.2967 -11.7954 -11.7017 -11.4298 -10.9687 -10.2900  -9.7887  -9.7170
    -9.4937  -9.3032  -9.2264  -9.0357  -9.0226  -8.3060  -8.1675  -7.9550
    -7.6710  -7.3166  -6.8962  -6.4164  -5.8855  -5.3137  -4.7134  -4.0965
    -3.3701  -3.0354  -2.3376  -1.7581  -1.1960  -0.6388  -0.0792   0.4841
     1.0442   1.5848   2.0786   2.4826   2.4846   2.4850   2.7438   3.0050
     3.1475   3.3624   3.5094   3.5942   3.6471   3.7273   3.7471   3.7681
     3.8417   3.8755   3.9041   3.9292   3.9432   3.9648   3.9988   4.0026

          k = 0.4000 0.0000 0.0000 ( 84898 PWs)   bands (ev):

   -19.9616 -19.8342 -19.6393 -19.3788 -19.0518 -18.6621 -18.2165 -17.7297
   -17.2413 -16.8872 -16.8054 -16.1760 -16.1684 -15.8484 -15.7150 -15.5370
   -15.3002 -15.1854 -14.7823 -14.2955 -13.7700 -13.2253 -13.2224 -12.7055
   -12.6850 -12.3177 -12.0203 -11.3245 -10.6587 -10.5519 -10.1827 -10.0792
    -9.7994  -9.6412  -9.5173  -9.3088  -9.2835  -7.5759  -7.4468  -7.2505
    -6.9912  -6.6721  -6.3016  -5.8919  -5.4602  -5.0313  -4.6435  -4.3566
    -3.2185  -3.2175  -2.1146  -1.9084  -1.6181  -1.2611  -0.8486  -0.3933
     0.0880   0.5716   1.0243   1.3982   1.6383   3.0650   3.0656   3.9048
     4.0435   4.2480   4.4334   4.4385   4.4868   4.4915   4.5775   4.6298
     4.6537   4.6759   4.7567   4.8003   4.8352   4.8437   4.8528   4.8835

          k = 0.4500 0.0000 0.0000 ( 84972 PWs)   bands (ev):

   -19.2433 -19.1182 -18.9276 -18.6749 -18.3621 -18.0018 -17.6340 -17.6248
   -17.5269 -17.4068 -17.3863 -16.5052 -16.4584 -16.1160 -16.0854 -15.6645
   -15.6147 -15.1780 -15.0742 -14.6463 -14.6381 -14.0943 -13.5615 -13.1543
   -12.6629 -12.1437 -11.5193 -11.2998 -10.8901 -10.8660 -10.3893 -10.3140
    -9.9701  -9.8581  -9.6950  -9.4725  -9.4410  -6.7812  -6.6699  -6.5054
    -6.2962  -6.0529  -5.7945  -5.5475  -5.3419  -5.2000  -5.1250  -5.1026
    -3.2487  -3.2486  -1.5448  -1.5421  -1.4153  -1.3865  -1.3033  -1.0764
    -0.7388  -0.3532   0.0318   0.3596   0.5716   3.6235   3.6295   4.3369
     4.5017   4.5517   4.9010   4.9383   5.0569   5.0593   5.2907   5.4579
     5.4955   5.5197   5.6100   5.6350   5.6970   5.7150   5.7872   5.8232

          k =-0.5000 0.0000 0.0000 ( 84998 PWs)   bands (ev):

   -18.4607 -18.4574 -18.3419 -18.3367 -18.1665 -18.1543 -17.9447 -17.9217
   -17.7052 -17.6711 -17.5534 -16.6436 -16.5339 -16.3221 -16.0572 -15.9062
   -15.5267 -15.3979 -14.9557 -14.8487 -14.3936 -14.3144 -13.9463 -13.9126
   -12.0159 -12.0062 -11.5322 -11.5248 -10.9732 -10.9575 -10.4484 -10.4007
   -10.0222  -9.9354  -9.7549  -9.5269  -9.4936  -5.9461  -5.9427  -5.8734
    -5.8692  -5.7801  -5.7727  -5.6827  -5.6769  -5.6115  -5.5964  -5.5744
    -3.2627  -3.2626  -1.4587  -1.4431  -1.2679  -1.2131  -1.0164  -0.9193
    -0.7538  -0.6388  -0.5342  -0.4450  -0.4104   3.9823   4.0110   4.2134
     4.3152   4.5430   4.6867   5.1501   5.2989   5.8976   6.0414   6.0516
     6.0633   6.1738   6.1947   6.3529   6.4106   6.5395   6.6687   6.6963

     the Fermi energy is    -3.2296 ev

!    total energy              =    -444.96082170 Ry
     Harris-Foulkes estimate   =    -444.96082236 Ry
     estimated scf accuracy    <       0.00000079 Ry

     total all-electron energy =     -1831.299250 Ry

     The total energy is the sum of the following terms:

     one-electron contribution =   -6617.40108813 Ry
     hartree contribution      =    3323.07511724 Ry
     xc contribution           =    -100.88784990 Ry
     ewald contribution        =    3109.95870125 Ry
     one-center paw contrib.   =    -159.69417481 Ry
     smearing contrib. (-TS)   =      -0.01152734 Ry

     convergence has been achieved in  15 iterations

     Writing output data file ZGNR12.save

     init_run     :    169.39s CPU    192.62s WALL (       1 calls)
     electrons    :   8134.58s CPU   8235.14s WALL (       1 calls)

     Called by init_run:
     wfcinit      :    149.60s CPU    150.77s WALL (       1 calls)
     potinit      :      6.46s CPU     10.20s WALL (       1 calls)

     Called by electrons:
     c_bands      :   7355.61s CPU   7423.86s WALL (      15 calls)
     sum_band     :    653.18s CPU    670.00s WALL (      15 calls)
     v_of_rho     :     27.67s CPU     33.69s WALL (      16 calls)
     newd         :     87.03s CPU    111.86s WALL (      16 calls)
     PAW_pot      :     12.03s CPU     12.04s WALL (      16 calls)
     mix_rho      :      4.21s CPU      4.28s WALL (      15 calls)

     Called by c_bands:
     init_us_2    :     15.54s CPU     15.60s WALL (     341 calls)
     cegterg      :   7307.65s CPU   7375.63s WALL (     166 calls)

     Called by sum_band:
     sum_band:bec :      0.04s CPU      0.05s WALL (     165 calls)
     addusdens    :     71.97s CPU     88.02s WALL (      15 calls)

     Called by *egterg:
     h_psi        :   3385.56s CPU   3389.56s WALL (    1431 calls)
     s_psi        :    941.84s CPU    942.60s WALL (    1431 calls)
     g_psi        :      6.95s CPU      6.96s WALL (    1254 calls)
     cdiaghg      :     50.01s CPU     50.18s WALL (    1420 calls)

     Called by h_psi:
     h_psi:pot    :   3377.15s CPU   3380.82s WALL (    1431 calls)
     h_psi:calbec :    974.64s CPU    975.27s WALL (    1431 calls)
     vloc_psi     :   1461.92s CPU   1464.42s WALL (    1431 calls)
     add_vuspsi   :    940.58s CPU    941.13s WALL (    1431 calls)

     General routines
     calbec       :   1284.62s CPU   1285.40s WALL (    1596 calls)
     fft          :     20.19s CPU     24.13s WALL (     252 calls)
     ffts         :      0.64s CPU      0.65s WALL (      31 calls)
     fftw         :   1415.53s CPU   1417.77s WALL (   96758 calls)
     interpolate  :      3.77s CPU      3.86s WALL (      31 calls)
     davcio       :      0.34s CPU      4.70s WALL (      11 calls)

     Parallel routines
     fft_scatter  :    175.11s CPU    176.78s WALL (   97041 calls)

     PWSCF        :     2h18m CPU        2h20m WALL


   This run was terminated on:  14:50:24   4Apr2019            

=------------------------------------------------------------------------------=
   JOB DONE.
=------------------------------------------------------------------------------=
