
     Program PWSCF v.6.0 starts on 21Nov2018 at 20:22: 7 

     This program is part of the open-source Quantum ESPRESSO suite
     for quantum simulation of materials; please cite
         "P. Giannozzi et al., J. Phys.:Condens. Matter 21 395502 (2009);
          URL http://www.quantum-espresso.org", 
     in publications or presentations arising from this work. More details at
     http://www.quantum-espresso.org/quote

     Serial multi-threaded version, running on    8 processor cores
     Waiting for input...
     Reading input from standard input

     Current dimensions of program PWSCF are:
     Max number of different atomic species (ntypx) = 10
     Max number of k-points (npk) =  40000
     Max angular momentum in pseudopotentials (lmaxx) =  3

     Atomic positions and unit cell read from directory:
     ./TMP/./mol.save/

               file C.pbe-n-kjpaw_psl.1.0.0.UPF: wavefunction(s)  2S 2P renormalized

     G-vector sticks info
     --------------------
     sticks:   dense  smooth     PW     G-vecs:    dense   smooth      PW
     Sum        7539    3379   1041              1721397   511267   86527



     bravais-lattice index     =            0
     lattice parameter (alat)  =       4.6487  a.u.
     unit-cell volume          =   14940.8128 (a.u.)^3
     number of atoms/cell      =           40
     number of atomic types    =            1
     number of electrons       =       160.00
     number of Kohn-Sham states=          150
     kinetic-energy cutoff     =      40.0000  Ry
     charge density cutoff     =     360.0000  Ry
     Exchange-correlation      =  SLA  PW   PBX  PBC ( 1  4  3  4 0 0)

     celldm(1)=   4.648726  celldm(2)=   0.000000  celldm(3)=   0.000000
     celldm(4)=   0.000000  celldm(5)=   0.000000  celldm(6)=   0.000000

     crystal axes: (cart. coord. in units of alat)
               a(1) = (   1.000000   0.000000   0.000000 )  
               a(2) = (   0.000000  12.195122   0.000000 )  
               a(3) = (   0.000000   0.000000  12.195122 )  

     reciprocal axes: (cart. coord. in units 2 pi/alat)
               b(1) = (  1.000000  0.000000  0.000000 )  
               b(2) = (  0.000000  0.082000  0.000000 )  
               b(3) = (  0.000000  0.000000  0.082000 )  


     PseudoPot. # 1 for  C read from file:
     /home/renebeth/Downloads/pslibrary.1.0.0/pbe/PSEUDOPOTENTIALS/C.pbe-n-kjpaw_psl.1.0.0.UPF
     MD5 check sum: 7e2e586787e160620b6639e879676452
     Pseudo is Projector augmented-wave + core cor, Zval =  4.0
     Generated using "atomic" code by A. Dal Corso  v.6.0
     Shape of augmentation charge: PSQ
     Using radial grid of 1073 points,  4 beta functions with: 
                l(1) =   0
                l(2) =   0
                l(3) =   1
                l(4) =   1
     Q(r) pseudized with 0 coefficients 


     atomic species   valence    mass     pseudopotential
        C              4.00    12.01100      C( 1.00)

      2 Sym. Ops. (no inversion) found


                                    s                        frac. trans.

      isym =  1     identity                                     

 cryst.   s( 1) = (     1          0          0      )
                  (     0          1          0      )
                  (     0          0          1      )

 cart.    s( 1) = (  1.0000000  0.0000000  0.0000000 )
                  (  0.0000000  1.0000000  0.0000000 )
                  (  0.0000000  0.0000000  1.0000000 )


      isym =  2     180 deg rotation - cart. axis [1,0,0]        

 cryst.   s( 2) = (     1          0          0      )
                  (     0         -1          0      )
                  (     0          0         -1      )

 cart.    s( 2) = (  1.0000000  0.0000000  0.0000000 )
                  (  0.0000000 -1.0000000  0.0000000 )
                  (  0.0000000  0.0000000 -1.0000000 )


   Cartesian axes

     site n.     atom                  positions (alat units)
         1           C   tau(   1) = (   0.4999008   0.8516809  -2.6212049  )
         2           C   tau(   2) = (   0.0000000   1.6199935  -2.2297301  )
         3           C   tau(   3) = (   0.4999008   2.2297301  -1.6199935  )
         4           C   tau(   4) = (   0.0000000   2.6212049  -0.8516809  )
         5           C   tau(   5) = (   0.4999008   2.7560980   0.0000000  )
         6           C   tau(   6) = (   0.0000000   2.6212049   0.8516809  )
         7           C   tau(   7) = (   0.4999008   2.2297301   1.6199935  )
         8           C   tau(   8) = (   0.0000000   1.6199935   2.2297301  )
         9           C   tau(   9) = (   0.4999008   0.8516809   2.6212049  )
        10           C   tau(  10) = (   0.0000000   0.0000000   2.7560980  )
        11           C   tau(  11) = (   0.4999008  -0.8516809   2.6212049  )
        12           C   tau(  12) = (   0.0000000  -1.6199935   2.2297301  )
        13           C   tau(  13) = (   0.4999008  -2.2297301   1.6199935  )
        14           C   tau(  14) = (   0.0000000  -2.6212049   0.8516809  )
        15           C   tau(  15) = (   0.4999008  -2.7560980   0.0000000  )
        16           C   tau(  16) = (   0.0000000  -2.6212049  -0.8516809  )
        17           C   tau(  17) = (   0.4999008  -2.2297301  -1.6199935  )
        18           C   tau(  18) = (   0.0000000  -1.6199935  -2.2297301  )
        19           C   tau(  19) = (   0.4999008  -0.8516809  -2.6212049  )
        20           C   tau(  20) = (   0.0000000   0.0000000  -2.7560980  )
        21           C   tau(  21) = (   0.4999008   1.3780488  -2.3868508  )
        22           C   tau(  22) = (   0.0000000   2.0481797  -1.8441894  )
        23           C   tau(  23) = (   0.4999008   2.5178207  -1.1210061  )
        24           C   tau(  24) = (   0.0000000   2.7409996  -0.2880907  )
        25           C   tau(  25) = (   0.4999008   2.6958703   0.5730248  )
        26           C   tau(  26) = (   0.0000000   2.3868508   1.3780488  )
        27           C   tau(  27) = (   0.4999008   1.8441894   2.0481797  )
        28           C   tau(  28) = (   0.0000000   1.1210061   2.5178207  )
        29           C   tau(  29) = (   0.4999008   0.2880907   2.7409996  )
        30           C   tau(  30) = (   0.0000000  -0.5730248   2.6958703  )
        31           C   tau(  31) = (   0.4999008  -1.3780488   2.3868508  )
        32           C   tau(  32) = (   0.0000000  -2.0481797   1.8441894  )
        33           C   tau(  33) = (   0.4999008  -2.5178207   1.1210061  )
        34           C   tau(  34) = (   0.0000000  -2.7409996   0.2880907  )
        35           C   tau(  35) = (   0.4999008  -2.6958703  -0.5730248  )
        36           C   tau(  36) = (   0.0000000  -2.3868508  -1.3780488  )
        37           C   tau(  37) = (   0.4999008  -1.8441894  -2.0481797  )
        38           C   tau(  38) = (   0.0000000  -1.1210061  -2.5178207  )
        39           C   tau(  39) = (   0.4999008  -0.2880907  -2.7409996  )
        40           C   tau(  40) = (   0.0000000   0.5730248  -2.6958703  )

   Crystallographic axes

     site n.     atom                  positions (cryst. coord.)
         1           C   tau(   1) = (  0.4999008  0.0698378 -0.2149388  )
         2           C   tau(   2) = (  0.0000000  0.1328395 -0.1828379  )
         3           C   tau(   3) = (  0.4999008  0.1828379 -0.1328395  )
         4           C   tau(   4) = (  0.0000000  0.2149388 -0.0698378  )
         5           C   tau(   5) = (  0.4999008  0.2260000  0.0000000  )
         6           C   tau(   6) = (  0.0000000  0.2149388  0.0698378  )
         7           C   tau(   7) = (  0.4999008  0.1828379  0.1328395  )
         8           C   tau(   8) = (  0.0000000  0.1328395  0.1828379  )
         9           C   tau(   9) = (  0.4999008  0.0698378  0.2149388  )
        10           C   tau(  10) = (  0.0000000  0.0000000  0.2260000  )
        11           C   tau(  11) = (  0.4999008 -0.0698378  0.2149388  )
        12           C   tau(  12) = (  0.0000000 -0.1328395  0.1828379  )
        13           C   tau(  13) = (  0.4999008 -0.1828379  0.1328395  )
        14           C   tau(  14) = (  0.0000000 -0.2149388  0.0698378  )
        15           C   tau(  15) = (  0.4999008 -0.2260000  0.0000000  )
        16           C   tau(  16) = (  0.0000000 -0.2149388 -0.0698378  )
        17           C   tau(  17) = (  0.4999008 -0.1828379 -0.1328395  )
        18           C   tau(  18) = (  0.0000000 -0.1328395 -0.1828379  )
        19           C   tau(  19) = (  0.4999008 -0.0698378 -0.2149388  )
        20           C   tau(  20) = (  0.0000000  0.0000000 -0.2260000  )
        21           C   tau(  21) = (  0.4999008  0.1130000 -0.1957218  )
        22           C   tau(  22) = (  0.0000000  0.1679507 -0.1512235  )
        23           C   tau(  23) = (  0.4999008  0.2064613 -0.0919225  )
        24           C   tau(  24) = (  0.0000000  0.2247620 -0.0236234  )
        25           C   tau(  25) = (  0.4999008  0.2210614  0.0469880  )
        26           C   tau(  26) = (  0.0000000  0.1957218  0.1130000  )
        27           C   tau(  27) = (  0.4999008  0.1512235  0.1679507  )
        28           C   tau(  28) = (  0.0000000  0.0919225  0.2064613  )
        29           C   tau(  29) = (  0.4999008  0.0236234  0.2247620  )
        30           C   tau(  30) = (  0.0000000 -0.0469880  0.2210614  )
        31           C   tau(  31) = (  0.4999008 -0.1130000  0.1957218  )
        32           C   tau(  32) = (  0.0000000 -0.1679507  0.1512235  )
        33           C   tau(  33) = (  0.4999008 -0.2064613  0.0919225  )
        34           C   tau(  34) = (  0.0000000 -0.2247620  0.0236234  )
        35           C   tau(  35) = (  0.4999008 -0.2210614 -0.0469880  )
        36           C   tau(  36) = (  0.0000000 -0.1957218 -0.1130000  )
        37           C   tau(  37) = (  0.4999008 -0.1512235 -0.1679507  )
        38           C   tau(  38) = (  0.0000000 -0.0919225 -0.2064613  )
        39           C   tau(  39) = (  0.4999008 -0.0236234 -0.2247620  )
        40           C   tau(  40) = (  0.0000000  0.0469880 -0.2210614  )

     number of k points=    31  gaussian smearing, width (Ry)=  0.0300
                       cart. coord. in units 2pi/alat
        k(    1) = (   0.0000000   0.0000000   0.0000000), wk =   0.0645161
        k(    2) = (   0.0166667   0.0000000   0.0000000), wk =   0.0645161
        k(    3) = (   0.0333333   0.0000000   0.0000000), wk =   0.0645161
        k(    4) = (   0.0500000   0.0000000   0.0000000), wk =   0.0645161
        k(    5) = (   0.0666667   0.0000000   0.0000000), wk =   0.0645161
        k(    6) = (   0.0833333   0.0000000   0.0000000), wk =   0.0645161
        k(    7) = (   0.1000000   0.0000000   0.0000000), wk =   0.0645161
        k(    8) = (   0.1166667   0.0000000   0.0000000), wk =   0.0645161
        k(    9) = (   0.1333333   0.0000000   0.0000000), wk =   0.0645161
        k(   10) = (   0.1500000   0.0000000   0.0000000), wk =   0.0645161
        k(   11) = (   0.1666667   0.0000000   0.0000000), wk =   0.0645161
        k(   12) = (   0.1833333   0.0000000   0.0000000), wk =   0.0645161
        k(   13) = (   0.2000000   0.0000000   0.0000000), wk =   0.0645161
        k(   14) = (   0.2166667   0.0000000   0.0000000), wk =   0.0645161
        k(   15) = (   0.2333333   0.0000000   0.0000000), wk =   0.0645161
        k(   16) = (   0.2500000   0.0000000   0.0000000), wk =   0.0645161
        k(   17) = (   0.2666667   0.0000000   0.0000000), wk =   0.0645161
        k(   18) = (   0.2833333   0.0000000   0.0000000), wk =   0.0645161
        k(   19) = (   0.3000000   0.0000000   0.0000000), wk =   0.0645161
        k(   20) = (   0.3166667   0.0000000   0.0000000), wk =   0.0645161
        k(   21) = (   0.3333333   0.0000000   0.0000000), wk =   0.0645161
        k(   22) = (   0.3500000   0.0000000   0.0000000), wk =   0.0645161
        k(   23) = (   0.3666667   0.0000000   0.0000000), wk =   0.0645161
        k(   24) = (   0.3833333   0.0000000   0.0000000), wk =   0.0645161
        k(   25) = (   0.4000000   0.0000000   0.0000000), wk =   0.0645161
        k(   26) = (   0.4166667   0.0000000   0.0000000), wk =   0.0645161
        k(   27) = (   0.4333333   0.0000000   0.0000000), wk =   0.0645161
        k(   28) = (   0.4500000   0.0000000   0.0000000), wk =   0.0645161
        k(   29) = (   0.4666667   0.0000000   0.0000000), wk =   0.0645161
        k(   30) = (   0.4833333   0.0000000   0.0000000), wk =   0.0645161
        k(   31) = (   0.5000000   0.0000000   0.0000000), wk =   0.0645161

                       cryst. coord.
        k(    1) = (   0.0000000   0.0000000   0.0000000), wk =   0.0645161
        k(    2) = (   0.0166667   0.0000000   0.0000000), wk =   0.0645161
        k(    3) = (   0.0333333   0.0000000   0.0000000), wk =   0.0645161
        k(    4) = (   0.0500000   0.0000000   0.0000000), wk =   0.0645161
        k(    5) = (   0.0666667   0.0000000   0.0000000), wk =   0.0645161
        k(    6) = (   0.0833333   0.0000000   0.0000000), wk =   0.0645161
        k(    7) = (   0.1000000   0.0000000   0.0000000), wk =   0.0645161
        k(    8) = (   0.1166667   0.0000000   0.0000000), wk =   0.0645161
        k(    9) = (   0.1333333   0.0000000   0.0000000), wk =   0.0645161
        k(   10) = (   0.1500000   0.0000000   0.0000000), wk =   0.0645161
        k(   11) = (   0.1666667   0.0000000   0.0000000), wk =   0.0645161
        k(   12) = (   0.1833333   0.0000000   0.0000000), wk =   0.0645161
        k(   13) = (   0.2000000   0.0000000   0.0000000), wk =   0.0645161
        k(   14) = (   0.2166667   0.0000000   0.0000000), wk =   0.0645161
        k(   15) = (   0.2333333   0.0000000   0.0000000), wk =   0.0645161
        k(   16) = (   0.2500000   0.0000000   0.0000000), wk =   0.0645161
        k(   17) = (   0.2666667   0.0000000   0.0000000), wk =   0.0645161
        k(   18) = (   0.2833333   0.0000000   0.0000000), wk =   0.0645161
        k(   19) = (   0.3000000   0.0000000   0.0000000), wk =   0.0645161
        k(   20) = (   0.3166667   0.0000000   0.0000000), wk =   0.0645161
        k(   21) = (   0.3333333   0.0000000   0.0000000), wk =   0.0645161
        k(   22) = (   0.3500000   0.0000000   0.0000000), wk =   0.0645161
        k(   23) = (   0.3666667   0.0000000   0.0000000), wk =   0.0645161
        k(   24) = (   0.3833333   0.0000000   0.0000000), wk =   0.0645161
        k(   25) = (   0.4000000   0.0000000   0.0000000), wk =   0.0645161
        k(   26) = (   0.4166667   0.0000000   0.0000000), wk =   0.0645161
        k(   27) = (   0.4333333   0.0000000   0.0000000), wk =   0.0645161
        k(   28) = (   0.4500000   0.0000000   0.0000000), wk =   0.0645161
        k(   29) = (   0.4666667   0.0000000   0.0000000), wk =   0.0645161
        k(   30) = (   0.4833333   0.0000000   0.0000000), wk =   0.0645161
        k(   31) = (   0.5000000   0.0000000   0.0000000), wk =   0.0645161

     Dense  grid:  1721397 G-vectors     FFT dimensions: (  30, 360, 360)

     Smooth grid:   511267 G-vectors     FFT dimensions: (  20, 240, 240)

     Estimated max dynamical RAM per process >    2109.23Mb

     Check: negative/imaginary core charge=   -0.000004    0.000000

     The potential is recalculated from file :
     ./TMP/./mol.save/charge-density.dat


     negative rho (up, down):  6.086E-03 0.000E+00
     Starting wfc are  160 randomized atomic wfcs

     Band Structure Calculation
     Davidson diagonalization with overlap

     Computing kpt #:     1
     total cpu time spent up to now is      675.5 secs

     Computing kpt #:     2
     total cpu time spent up to now is     1337.6 secs

     Computing kpt #:     3
     total cpu time spent up to now is     2064.5 secs

     Computing kpt #:     4
     total cpu time spent up to now is     2789.1 secs

     Computing kpt #:     5
     total cpu time spent up to now is     3506.7 secs

     Computing kpt #:     6
     total cpu time spent up to now is     4224.5 secs

     Computing kpt #:     7
     total cpu time spent up to now is     4941.3 secs

     Computing kpt #:     8
     total cpu time spent up to now is     5663.5 secs

     Computing kpt #:     9
     total cpu time spent up to now is     6389.1 secs

     Computing kpt #:    10
     total cpu time spent up to now is     7111.4 secs

     Computing kpt #:    11
     total cpu time spent up to now is     7838.8 secs

     Computing kpt #:    12
     total cpu time spent up to now is     8569.0 secs

     Computing kpt #:    13
     total cpu time spent up to now is     9292.3 secs

     Computing kpt #:    14
     total cpu time spent up to now is    10016.6 secs

     Computing kpt #:    15
     total cpu time spent up to now is    10794.0 secs

     Computing kpt #:    16
     total cpu time spent up to now is    11495.8 secs

     Computing kpt #:    17
     total cpu time spent up to now is    12185.3 secs

     Computing kpt #:    18
     total cpu time spent up to now is    12888.4 secs

     Computing kpt #:    19
     total cpu time spent up to now is    13643.6 secs

     Computing kpt #:    20
     total cpu time spent up to now is    14328.1 secs

     Computing kpt #:    21
     total cpu time spent up to now is    15011.4 secs

     Computing kpt #:    22
     total cpu time spent up to now is    15699.4 secs

     Computing kpt #:    23
     total cpu time spent up to now is    16382.1 secs

     Computing kpt #:    24
     total cpu time spent up to now is    17069.5 secs

     Computing kpt #:    25
     total cpu time spent up to now is    17745.1 secs

     Computing kpt #:    26
     total cpu time spent up to now is    18475.5 secs

     Computing kpt #:    27
     total cpu time spent up to now is    19090.8 secs

     Computing kpt #:    28
     total cpu time spent up to now is    19773.8 secs

     Computing kpt #:    29
     total cpu time spent up to now is    20457.6 secs

     Computing kpt #:    30
     total cpu time spent up to now is    21156.9 secs

     Computing kpt #:    31
     total cpu time spent up to now is    21860.0 secs

     ethr =  6.25E-10,  avg # of iterations = 47.7

     total cpu time spent up to now is    21860.0 secs

     End of band structure calculation

          k = 0.0000 0.0000 0.0000 ( 63941 PWs)   bands (ev):

   -22.1326 -22.0715 -22.0710 -21.8880 -21.8869 -21.5828 -21.5823 -21.1588
   -21.1583 -20.6185 -20.6184 -19.9663 -19.9663 -19.2081 -19.2080 -18.3539
   -18.3536 -17.4343 -17.4341 -16.7642 -15.7576 -15.0047 -15.0045 -13.8388
   -13.8385 -12.5842 -12.5841 -11.2915 -11.2913 -10.2191 -10.1471 -10.1466
   -10.0215 -10.0215  -9.9337  -9.9327  -9.5921  -9.5917  -9.2535  -9.2532
    -8.9718  -8.9121  -8.9116  -8.7342  -8.7331  -8.4428  -8.4423  -8.4184
    -8.4180  -8.2942  -8.2942  -8.0495  -8.0491  -7.5848  -7.5848  -7.5719
    -7.5718  -7.4035  -7.4032  -7.0383  -7.0380  -6.7483  -6.7482  -6.4919
    -6.4916  -6.4391  -6.4380  -5.9989  -5.9978  -5.8628  -5.8622  -5.7705
    -5.7700  -5.6440  -5.6435  -5.5292  -5.5128  -5.0665  -5.0661  -4.6992
    -0.8071  -0.3615  -0.3611   0.5714   0.6639   0.6645   0.7988   0.7991
     1.0623   1.0951   1.2115   1.3410   1.3410   1.4671   1.5426   1.5427
     1.6470   1.6480   1.7104   1.7766   1.7767   1.8823   1.9023   1.9024
     1.9242   1.9242   1.9349   2.0085   2.3406   2.3430   2.3577   2.3578
     2.3925   2.5568   2.5569   2.5589   2.6665   2.7093   2.7207   2.7482
     2.7483   2.8594   2.8594   2.8776   3.1178   3.1605   3.2227   3.2228
     3.2459   3.2605   3.3144   3.3217   3.3724   3.3725   3.7330   3.7331
     3.7893   3.8021   3.8266   3.9440   3.9441   3.9723   4.0162   4.0163
     4.1071   4.1374   4.1876   4.2431   4.2913   4.2913

          k = 0.0167 0.0000 0.0000 ( 64037 PWs)   bands (ev):

   -22.1276 -22.0665 -22.0660 -21.8831 -21.8820 -21.5778 -21.5774 -21.1539
   -21.1535 -20.6136 -20.6136 -19.9616 -19.9616 -19.2034 -19.2033 -18.3493
   -18.3491 -17.4299 -17.4296 -16.7600 -15.7535 -15.0008 -15.0006 -13.8354
   -13.8351 -12.5816 -12.5814 -11.2900 -11.2898 -10.2132 -10.1413 -10.1408
   -10.0215 -10.0215  -9.9279  -9.9269  -9.5865  -9.5861  -9.2499  -9.2496
    -8.9943  -8.9346  -8.9341  -8.7565  -8.7554  -8.4648  -8.4643  -8.4194
    -8.4190  -8.2890  -8.2889  -8.0711  -8.0706  -7.5926  -7.5925  -7.5793
    -7.5792  -7.4107  -7.4103  -7.0576  -7.0573  -6.7429  -6.7427  -6.5092
    -6.5088  -6.4517  -6.4507  -6.0134  -6.0124  -5.8573  -5.8567  -5.7879
    -5.7874  -5.6567  -5.6563  -5.5400  -5.5335  -5.0608  -5.0604  -4.6933
    -0.8083  -0.3627  -0.3623   0.5781   0.6623   0.6629   0.8055   0.8058
     1.0691   1.1018   1.2183   1.3478   1.3478   1.4740   1.5493   1.5495
     1.6538   1.6549   1.7172   1.7834   1.7835   1.8890   1.9003   1.9004
     1.9307   1.9307   1.9417   2.0154   2.3473   2.3498   2.3645   2.3646
     2.3992   2.5636   2.5637   2.5656   2.6732   2.7161   2.7276   2.7550
     2.7551   2.8662   2.8662   2.8844   3.1216   3.1629   3.2295   3.2296
     3.2469   3.2601   3.3212   3.3285   3.3792   3.3793   3.7398   3.7398
     3.7961   3.8089   3.8333   3.9509   3.9509   3.9791   4.0230   4.0231
     4.1139   4.1442   4.1945   4.2500   4.2981   4.2982

          k = 0.0333 0.0000 0.0000 ( 64017 PWs)   bands (ev):

   -22.1128 -22.0517 -22.0512 -21.8683 -21.8671 -21.5631 -21.5627 -21.1393
   -21.1388 -20.5991 -20.5991 -19.9472 -19.9472 -19.1893 -19.1892 -18.3355
   -18.3353 -17.4166 -17.4164 -16.7473 -15.7408 -14.9891 -14.9889 -13.8252
   -13.8249 -12.5736 -12.5735 -11.2855 -11.2853 -10.1955 -10.1236 -10.1232
   -10.0215 -10.0215  -9.9105  -9.9095  -9.5697  -9.5693  -9.2394  -9.2391
    -9.0610  -9.0011  -9.0006  -8.8226  -8.8214  -8.5301  -8.5296  -8.4227
    -8.4222  -8.2733  -8.2733  -8.1349  -8.1345  -7.6536  -7.6536  -7.5627
    -7.5627  -7.4328  -7.4325  -7.1141  -7.1139  -6.7264  -6.7262  -6.5591
    -6.5588  -6.4910  -6.4901  -6.0547  -6.0538  -5.8418  -5.8415  -5.8408
    -5.8401  -5.6920  -5.6917  -5.5946  -5.5723  -5.0436  -5.0432  -4.6754
    -0.8119  -0.3662  -0.3658   0.5983   0.6575   0.6581   0.8256   0.8260
     1.0894   1.1221   1.2389   1.3682   1.3683   1.4947   1.5697   1.5699
     1.6742   1.6754   1.7376   1.8039   1.8040   1.8934   1.8936   1.9094
     1.9509   1.9509   1.9623   2.0360   2.3677   2.3703   2.3850   2.3851
     2.4193   2.5841   2.5841   2.5858   2.6934   2.7366   2.7481   2.7752
     2.7753   2.8865   2.8865   2.9048   3.1308   3.1662   3.2497   3.2498
     3.2534   3.2607   3.3416   3.3489   3.3993   3.3994   3.7599   3.7599
     3.8163   3.8292   3.8532   3.9713   3.9714   3.9994   4.0434   4.0435
     4.1342   4.1648   4.2150   4.2706   4.3186   4.3186

          k = 0.0500 0.0000 0.0000 ( 64041 PWs)   bands (ev):

   -22.0881 -22.0270 -22.0265 -21.8436 -21.8425 -21.5385 -21.5381 -21.1148
   -21.1144 -20.5749 -20.5748 -19.9233 -19.9233 -19.1657 -19.1657 -18.3126
   -18.3123 -17.3945 -17.3943 -16.7262 -15.7199 -14.9697 -14.9695 -13.8084
   -13.8081 -12.5607 -12.5606 -11.2784 -11.2782 -10.1661 -10.0943 -10.0938
   -10.0223 -10.0222  -9.8815  -9.8805  -9.5417  -9.5413  -9.2229  -9.2226
    -9.1700  -9.1098  -9.1093  -8.9305  -8.9293  -8.6366  -8.6361  -8.4286
    -8.4282  -8.2474  -8.2474  -8.2389  -8.2385  -7.7523  -7.7522  -7.5352
    -7.5351  -7.4728  -7.4725  -7.2048  -7.2045  -6.6989  -6.6988  -6.6372
    -6.6369  -6.5612  -6.5604  -6.1171  -6.1163  -5.9354  -5.9352  -5.8132
    -5.8126  -5.7451  -5.7450  -5.6946  -5.6258  -5.0150  -5.0146  -4.6456
    -0.8184  -0.3727  -0.3723   0.6319   0.6488   0.6494   0.8592   0.8595
     1.1233   1.1558   1.2731   1.4023   1.4024   1.5291   1.6036   1.6038
     1.7083   1.7095   1.7717   1.8380   1.8381   1.8806   1.8808   1.9434
     1.9850   1.9851   1.9965   2.0704   2.4016   2.4046   2.4191   2.4192
     2.4528   2.6182   2.6182   2.6194   2.7268   2.7707   2.7822   2.8090
     2.8091   2.9204   2.9204   2.9387   3.1372   3.1604   3.2692   3.2743
     3.2833   3.2834   3.3756   3.3830   3.4329   3.4331   3.7934   3.7934
     3.8499   3.8631   3.8864   4.0054   4.0054   4.0330   4.0774   4.0775
     4.1680   4.1990   4.2490   4.3048   4.3306   4.3306

          k = 0.0667 0.0000 0.0000 ( 64013 PWs)   bands (ev):

   -22.0534 -21.9924 -21.9919 -21.8091 -21.8079 -21.5041 -21.5037 -21.0806
   -21.0802 -20.5410 -20.5409 -19.8898 -19.8898 -19.1328 -19.1327 -18.2805
   -18.2802 -17.3635 -17.3633 -16.6966 -15.6907 -14.9426 -14.9424 -13.7850
   -13.7847 -12.5429 -12.5428 -11.2692 -11.2690 -10.1250 -10.0533 -10.0528
   -10.0250 -10.0250  -9.8409  -9.8399  -9.5027  -9.5023  -9.3182  -9.2577
    -9.2571  -9.2024  -9.2021  -9.0772  -9.0761  -8.7811  -8.7807  -8.4384
    -8.4379  -8.3794  -8.3789  -8.2123  -8.2122  -7.8836  -7.8835  -7.5355
    -7.5352  -7.4966  -7.4965  -7.3237  -7.3235  -6.7356  -6.7353  -6.6674
    -6.6669  -6.6606  -6.6604  -6.1923  -6.1917  -6.0681  -6.0680  -5.8304
    -5.8136  -5.8135  -5.7748  -5.7741  -5.7000  -4.9751  -4.9747  -4.6039
    -0.8284  -0.3826  -0.3822   0.6356   0.6362   0.6790   0.9061   0.9065
     1.1706   1.2031   1.3210   1.4500   1.4501   1.5772   1.6511   1.6513
     1.7559   1.7574   1.8193   1.8610   1.8611   1.8859   1.8859   1.9909
     2.0330   2.0330   2.0444   2.1186   2.4490   2.4524   2.4669   2.4669
     2.4998   2.6659   2.6660   2.6663   2.7733   2.8184   2.8300   2.8562
     2.8563   2.9679   2.9679   2.9861   3.1284   3.1389   3.2966   3.3143
     3.3305   3.3305   3.4232   3.4305   3.4800   3.4801   3.8402   3.8403
     3.8970   3.9104   3.9329   4.0530   4.0531   4.0800   4.1249   4.1250
     4.2151   4.2469   4.2966   4.2985   4.2986   4.3527

          k = 0.0833 0.0000 0.0000 ( 64001 PWs)   bands (ev):

   -22.0089 -21.9479 -21.9474 -21.7647 -21.7636 -21.4599 -21.4595 -21.0367
   -21.0362 -20.4974 -20.4974 -19.8467 -19.8467 -19.0905 -19.0904 -18.2392
   -18.2390 -17.3238 -17.3236 -16.6586 -15.6535 -14.9081 -14.9079 -13.7554
   -13.7551 -12.5209 -12.5208 -11.2590 -11.2588 -10.0721 -10.0317 -10.0317
   -10.0007 -10.0002  -9.7889  -9.7879  -9.5019  -9.4529  -9.4525  -9.4409
    -9.4404  -9.2589  -9.2577  -9.1818  -9.1815  -8.9596  -8.9591  -8.5519
    -8.5514  -8.4530  -8.4526  -8.1752  -8.1751  -8.0347  -8.0346  -7.6280
    -7.6277  -7.4624  -7.4622  -7.4471  -7.4470  -6.8437  -6.8435  -6.8129
    -6.8126  -6.6115  -6.6113  -6.2736  -6.2733  -6.2364  -6.2362  -5.9990
    -5.8973  -5.8971  -5.7943  -5.7255  -5.7249  -4.9238  -4.9234  -4.5504
    -0.8429  -0.3968  -0.3964   0.6169   0.6175   0.7396   0.9665   0.9668
     1.2316   1.2638   1.3827   1.5114   1.5114   1.6391   1.7121   1.7123
     1.8172   1.8188   1.8331   1.8333   1.8806   1.9473   1.9474   2.0520
     2.0947   2.0948   2.1059   2.1805   2.5100   2.5140   2.5283   2.5283
     2.5600   2.7261   2.7273   2.7274   2.8318   2.8797   2.8915   2.9170
     2.9170   3.0289   3.0290   3.0472   3.0998   3.1018   3.3465   3.3715
     3.3910   3.3911   3.4843   3.4917   3.5404   3.5405   3.9003   3.9004
     3.9573   3.9714   3.9928   4.1142   4.1142   4.1402   4.1859   4.1859
     4.2474   4.2474   4.2754   4.3085   4.3575   4.4141

          k = 0.1000 0.0000 0.0000 ( 63989 PWs)   bands (ev):

   -21.9546 -21.8936 -21.8931 -21.7105 -21.7094 -21.4059 -21.4055 -20.9830
   -20.9826 -20.4442 -20.4441 -19.7942 -19.7942 -19.0389 -19.0388 -18.1889
   -18.1886 -17.2753 -17.2751 -16.6121 -15.6083 -14.8664 -14.8662 -13.7199
   -13.7196 -12.4953 -12.4952 -11.2493 -11.2491 -10.0456 -10.0456 -10.0077
    -9.9365  -9.9360  -9.7255  -9.7245  -9.7169  -9.6552  -9.6547  -9.4711
    -9.4699  -9.3928  -9.3924  -9.1681  -9.1678  -9.1671  -9.1667  -8.7506
    -8.7502  -8.4740  -8.4736  -8.2505  -8.2505  -8.0839  -8.0839  -7.7573
    -7.7571  -7.6087  -7.6085  -7.3868  -7.3868  -6.9964  -6.9963  -6.9501
    -6.9499  -6.5517  -6.5515  -6.4357  -6.4355  -6.3585  -6.3583  -6.1965
    -5.9962  -5.9960  -5.9079  -5.6656  -5.6649  -4.8614  -4.8610  -4.4850
    -0.8628  -0.4166  -0.4162   0.5916   0.5922   0.8136   1.0403   1.0406
     1.3060   1.3380   1.4580   1.5863   1.5864   1.7148   1.7867   1.7869
     1.7955   1.7957   1.8921   1.8939   1.9554   2.0224   2.0224   2.1266
     2.1702   2.1702   2.1812   2.2561   2.5844   2.5891   2.6033   2.6034
     2.6336   2.7976   2.8024   2.8024   2.8978   2.9546   2.9665   2.9912
     2.9913   3.0502   3.0573   3.1036   3.1036   3.1218   3.4155   3.4441
     3.4651   3.4652   3.5590   3.5664   3.6142   3.6143   3.9737   3.9738
     4.0308   4.0459   4.0661   4.1745   4.1745   4.1889   4.1890   4.2136
     4.2603   4.2603   4.3488   4.3837   4.4318   4.4892

          k = 0.1167 0.0000 0.0000 ( 63981 PWs)   bands (ev):

   -21.8904 -21.8294 -21.8289 -21.6465 -21.6454 -21.3422 -21.3417 -20.9196
   -20.9192 -20.3814 -20.3813 -19.7321 -19.7321 -18.9779 -18.9778 -18.1294
   -18.1291 -17.2181 -17.2179 -16.5572 -15.5556 -14.8178 -14.8175 -13.6792
   -13.6788 -12.4672 -12.4671 -11.2424 -11.2422 -10.0719 -10.0719  -9.9586
    -9.9317  -9.8961  -9.8956  -9.8608  -9.8603  -9.7089  -9.7078  -9.6510
    -9.6499  -9.3985  -9.3980  -9.3232  -9.3228  -9.1745  -9.1742  -8.9692
    -8.9688  -8.4999  -8.4996  -8.4372  -8.4371  -8.0234  -8.0233  -7.9267
    -7.9265  -7.7465  -7.7464  -7.3159  -7.3158  -7.2130  -7.2129  -7.0469
    -7.0468  -6.6614  -6.6612  -6.4814  -6.4813  -6.4475  -6.4473  -6.4190
    -6.1105  -6.1102  -6.0400  -5.5951  -5.5945  -4.7880  -4.7876  -4.4078
    -0.8896  -0.4429  -0.4425   0.5581   0.5587   0.9010   1.1275   1.1278
     1.3939   1.4256   1.5470   1.6749   1.6749   1.7465   1.7467   1.8042
     1.8748   1.8750   1.9806   1.9827   2.0438   2.1111   2.1112   2.2148
     2.2594   2.2594   2.2701   2.3455   2.6720   2.6779   2.6920   2.6921
     2.7203   2.8720   2.8911   2.8911   2.9311   2.9925   3.0425   3.0432
     3.0551   3.0789   3.0790   3.1919   3.1919   3.2100   3.5010   3.5312
     3.5528   3.5528   3.6473   3.6546   3.7013   3.7014   4.0604   4.0604
     4.0787   4.0787   4.1176   4.1341   4.1530   4.2771   4.2771   4.2998
     4.3480   4.3481   4.4348   4.4725   4.5193   4.5777

          k = 0.1333 0.0000 0.0000 ( 63949 PWs)   bands (ev):

   -21.8163 -21.7554 -21.7549 -21.5727 -21.5715 -21.2687 -21.2682 -20.8466
   -20.8461 -20.3089 -20.3089 -19.6605 -19.6605 -18.9076 -18.9075 -18.0609
   -18.0607 -17.1522 -17.1520 -16.4939 -15.4958 -14.7627 -14.7624 -13.6339
   -13.6335 -12.4384 -12.4383 -11.2421 -11.2419 -10.2224 -10.1588 -10.1583
   -10.1182 -10.1181  -9.9675  -9.9663  -9.8443  -9.7737  -9.7732  -9.6477
    -9.6473  -9.5654  -9.5644  -9.2457  -9.2453  -9.2218  -9.2216  -9.1997
    -9.1992  -8.6311  -8.6311  -8.5231  -8.5228  -8.1325  -8.1324  -7.9454
    -7.9453  -7.8591  -7.8590  -7.4570  -7.4568  -7.2344  -7.2344  -7.1323
    -7.1323  -6.9094  -6.9091  -6.6627  -6.5421  -6.5419  -6.4008  -6.4007
    -6.2396  -6.2393  -6.1894  -5.5144  -5.5138  -4.7037  -4.7033  -4.3188
    -0.9247  -0.4774  -0.4770   0.5152   0.5158   1.0020   1.2282   1.2285
     1.4954   1.5267   1.6497   1.6845   1.6847   1.7770   1.7771   1.9074
     1.9765   1.9767   2.0827   2.0850   2.1458   2.2134   2.2135   2.3165
     2.3623   2.3623   2.3727   2.4486   2.7703   2.7804   2.7943   2.7943
     2.8166   2.8656   2.8708   2.9934   2.9935   3.0137   3.1195   3.1454
     3.1573   3.1801   3.1801   3.2938   3.2938   3.3118   3.6015   3.6324
     3.6539   3.6540   3.7490   3.7563   3.8017   3.8018   3.9594   3.9594
     4.1605   4.1605   4.2176   4.2359   4.2535   4.3787   4.3788   4.3988
     4.4493   4.4493   4.5319   4.5749   4.6192   4.6799

          k = 0.1500 0.0000 0.0000 ( 64001 PWs)   bands (ev):

   -21.7325 -21.6717 -21.6712 -21.4891 -21.4880 -21.1854 -21.1850 -20.7638
   -20.7633 -20.2269 -20.2268 -19.5795 -19.5795 -18.8280 -18.8280 -17.9835
   -17.9832 -17.0776 -17.0774 -16.4221 -15.4293 -14.7017 -14.7015 -13.5852
   -13.5849 -12.4114 -12.4113 -11.2543 -11.2541 -10.5041 -10.4388 -10.4383
   -10.2416 -10.2404 -10.1953 -10.1952  -9.9084  -9.9080  -9.7455  -9.6754
    -9.6749  -9.4694  -9.4683  -9.4325  -9.4321  -9.3313  -9.3310  -9.1651
    -9.1647  -8.8125  -8.8124  -8.5305  -8.5303  -8.3640  -8.3639  -7.9346
    -7.9346  -7.8556  -7.8555  -7.7227  -7.7224  -7.2088  -7.2088  -7.1757
    -7.1754  -7.1426  -7.1426  -6.9240  -6.6438  -6.6436  -6.3831  -6.3828
    -6.3549  -6.3102  -6.3101  -5.4238  -5.4232  -4.6088  -4.6084  -4.2181
    -0.9696  -0.5213  -0.5209   0.4612   0.4618   1.1164   1.3422   1.3425
     1.6078   1.6080   1.6103   1.6413   1.7661   1.8927   1.8927   2.0243
     2.0917   2.0919   2.1985   2.2010   2.2612   2.3294   2.3295   2.4318
     2.4788   2.4789   2.4889   2.5653   2.7576   2.7605   2.8943   2.8963
     2.9101   2.9102   2.9370   3.1094   3.1094   3.1186   3.2300   3.2612
     3.2730   3.2947   3.2947   3.4093   3.4094   3.4272   3.7165   3.7474
     3.7686   3.7687   3.8170   3.8171   3.8642   3.8715   3.9152   3.9153
     4.2738   4.2739   4.3306   4.3513   4.3676   4.4937   4.4938   4.5073
     4.5638   4.5639   4.6040   4.6430   4.6826   4.6907

          k = 0.1667 0.0000 0.0000 ( 63985 PWs)   bands (ev):

   -21.6389 -21.5781 -21.5776 -21.3958 -21.3947 -21.0925 -21.0920 -20.6714
   -20.6710 -20.1353 -20.1353 -19.4891 -19.4891 -18.7393 -18.7392 -17.8971
   -17.8968 -16.9946 -16.9944 -16.3420 -15.3570 -14.6359 -14.6356 -13.5349
   -13.5346 -12.3904 -12.3902 -11.2883 -11.2880 -10.7992 -10.7315 -10.7310
   -10.5258 -10.5246 -10.3149 -10.3148 -10.1729 -10.1724  -9.6549  -9.6545
    -9.6356  -9.5661  -9.5656  -9.5079  -9.5077  -9.3636  -9.3625  -9.0994
    -9.0990  -8.9652  -8.9651  -8.5962  -8.5961  -8.5163  -8.5161  -8.0048
    -8.0044  -7.9708  -7.9706  -7.7549  -7.7548  -7.4567  -7.4564  -7.2801
    -7.2800  -7.1997  -7.0407  -7.0407  -6.7535  -6.7531  -6.5400  -6.5396
    -6.5353  -6.2098  -6.2097  -5.3236  -5.3230  -4.5036  -4.5032  -4.1057
    -1.0261  -0.5762  -0.5758   0.3949   0.3954   1.2443   1.4697   1.4700
     1.5152   1.5154   1.7387   1.7693   1.8962   2.0219   2.0220   2.1549
     2.2204   2.2206   2.3278   2.3304   2.3900   2.4590   2.4590   2.5605
     2.6090   2.6091   2.6187   2.6326   2.6335   2.6978   3.0206   3.0259
     3.0394   3.0395   3.0631   3.2389   3.2390   3.2447   3.3573   3.3906
     3.4021   3.4226   3.4226   3.5385   3.5385   3.5563   3.6523   3.6524
     3.8456   3.8760   3.8970   3.8971   3.9927   4.0001   4.0419   4.0420
     4.4005   4.4005   4.4389   4.4475   4.4665   4.4802   4.4954   4.6221
     4.6221   4.6435   4.6917   4.6918   4.7810   4.8194

          k = 0.1833 0.0000 0.0000 ( 63929 PWs)   bands (ev):

   -21.5356 -21.4749 -21.4744 -21.2928 -21.2916 -20.9899 -20.9894 -20.5694
   -20.5690 -20.0343 -20.0342 -19.3894 -19.3894 -18.6414 -18.6413 -17.8019
   -17.8016 -16.9031 -16.9029 -16.2534 -15.2799 -14.5664 -14.5662 -13.4859
   -13.4855 -12.3819 -12.3817 -11.3565 -11.3563 -11.1033 -11.0322 -11.0317
   -10.8141 -10.8130 -10.4845 -10.4844 -10.4312 -10.4308  -9.8510  -9.8507
    -9.7388  -9.7386  -9.5147  -9.4462  -9.4457  -9.2501  -9.2491  -9.1331
    -9.1329  -9.0787  -9.0786  -8.7387  -8.7386  -8.4884  -8.4882  -8.2976
    -8.2972  -7.9699  -7.9696  -7.7493  -7.7490  -7.6437  -7.6437  -7.4867
    -7.3491  -7.3490  -6.9290  -6.9289  -6.8714  -6.8710  -6.7290  -6.7094
    -6.7090  -6.1001  -6.0999  -5.2143  -5.2137  -4.3885  -4.3881  -3.9818
    -1.0959  -0.6434  -0.6430   0.3148   0.3154   1.3857   1.4055   1.4057
     1.6106   1.6109   1.8806   1.9107   2.0399   2.1646   2.1647   2.2993
     2.3626   2.3627   2.4707   2.4734   2.4857   2.4858   2.5322   2.6021
     2.6022   2.7029   2.7527   2.7528   2.7621   2.8411   3.1622   3.1687
     3.1815   3.1816   3.2030   3.3812   3.3812   3.3857   3.4671   3.4671
     3.4991   3.5336   3.5442   3.5646   3.5646   3.6813   3.6813   3.6989
     3.9886   4.0182   4.0389   4.0390   4.1317   4.1395   4.1815   4.1816
     4.2447   4.2454   4.5404   4.5404   4.5978   4.6224   4.6368   4.6934
     4.6937   4.7642   4.7643   4.7795   4.8333   4.8334

          k = 0.2000 0.0000 0.0000 ( 63949 PWs)   bands (ev):

   -21.4226 -21.3620 -21.3614 -21.1801 -21.1790 -20.8776 -20.8772 -20.4579
   -20.4575 -19.9238 -19.9237 -19.2803 -19.2803 -18.5345 -18.5344 -17.6980
   -17.6977 -16.8034 -16.8032 -16.1565 -15.1996 -14.4953 -14.4951 -13.4424
   -13.4420 -12.3963 -12.3961 -11.4727 -11.4724 -11.4120 -11.3360 -11.3355
   -11.0992 -11.0981 -10.7024 -10.7023 -10.6702 -10.6699 -10.0079 -10.0078
   -10.0042 -10.0039  -9.3832  -9.3490  -9.3490  -9.3164  -9.3159  -9.1520
    -9.1519  -9.1370  -9.1360  -8.7045  -8.7042  -8.5900  -8.5897  -8.4590
    -8.4588  -8.0503  -8.0500  -7.9338  -7.9335  -7.7825  -7.5224  -7.5224
    -7.4179  -7.4177  -6.9977  -6.9972  -6.9347  -6.8901  -6.8898  -6.8077
    -6.8077  -5.9815  -5.9813  -5.0966  -5.0960  -4.2642  -4.2638  -3.8463
    -1.1806  -0.7240  -0.7237   0.2200   0.2206   1.2782   1.2783   1.5405
     1.7649   1.7652   2.0359   2.0655   2.1972   2.3173   2.3174   2.3208
     2.3209   2.4573   2.5182   2.5184   2.6272   2.6298   2.6874   2.7588
     2.7588   2.8586   2.9092   2.9093   2.9190   2.9991   3.2514   3.2514
     3.3175   3.3246   3.3466   3.3467   3.3561   3.5397   3.5397   3.5407
     3.6550   3.6899   3.6974   3.7186   3.7187   3.8376   3.8376   3.8551
     4.0137   4.0173   4.1455   4.1737   4.1943   4.1944   4.2938   4.3007
     4.3338   4.3339   4.4896   4.4898   4.6937   4.6938   4.7503   4.7706
     4.7895   4.8233   4.8285   4.9187   4.9187   4.9302

          k = 0.2167 0.0000 0.0000 ( 63821 PWs)   bands (ev):

   -21.2999 -21.2394 -21.2389 -21.0578 -21.0567 -20.7558 -20.7554 -20.3369
   -20.3364 -19.8039 -19.8038 -19.1621 -19.1621 -18.4185 -18.4185 -17.5855
   -17.5853 -16.6956 -16.6954 -16.0512 -15.1184 -14.4257 -14.4255 -13.4117
   -13.4113 -12.4484 -12.4482 -11.7204 -11.6440 -11.6437 -11.6369 -11.6364
   -11.3712 -11.3701 -10.9594 -10.9594 -10.8727 -10.8723 -10.3011 -10.3011
   -10.1059 -10.1056  -9.6396  -9.6396  -9.2415  -9.1920  -9.1919  -9.1782
    -9.1777  -9.0913  -9.0910  -8.8125  -8.8123  -8.5982  -8.5979  -8.4370
    -8.4368  -8.3562  -8.3559  -8.0848  -7.8643  -7.8640  -7.4868  -7.4866
    -7.3912  -7.3911  -7.1505  -7.1318  -7.1313  -7.0809  -7.0805  -6.6774
    -6.6774  -5.8546  -5.8545  -4.9711  -4.9706  -4.1314  -4.1311  -3.6992
    -1.2818  -0.8188  -0.8185   0.1102   0.1107   1.1330   1.1332   1.7087
     1.9325   1.9329   2.1294   2.1295   2.2046   2.2336   2.3682   2.4903
     2.4904   2.6290   2.6872   2.6874   2.7972   2.7992   2.8551   2.9284
     2.9285   3.0164   3.0164   3.0278   3.0891   3.0956   3.0957   3.1709
     3.4862   3.4900   3.5117   3.5118   3.5222   3.7093   3.7098   3.7099
     3.7530   3.7756   3.8246   3.8626   3.8855   3.8856   3.8911   4.0073
     4.0074   4.0250   4.2741   4.2743   4.3162   4.3419   4.3633   4.3633
     4.4620   4.4694   4.4985   4.4987   4.6683   4.6716   4.8597   4.8598
     4.9162   4.9516   4.9613   5.0863   5.0863   5.0937

          k = 0.2333 0.0000 0.0000 ( 63781 PWs)   bands (ev):

   -21.1676 -21.1072 -21.1067 -20.9259 -20.9248 -20.6245 -20.6241 -20.2064
   -20.2059 -19.6746 -19.6746 -19.0346 -19.0346 -18.2938 -18.2937 -17.4647
   -17.4644 -16.5800 -16.5798 -15.9375 -15.0399 -14.3626 -14.3624 -13.4053
   -13.4049 -12.5538 -12.5535 -12.0230 -11.9278 -11.9273 -11.8665 -11.8662
   -11.6165 -11.6154 -11.2446 -11.2446 -11.0208 -11.0205 -10.6112 -10.6112
   -10.1571 -10.1568  -9.9532  -9.9531  -9.3077  -9.3073  -9.2078  -9.2078
    -9.0907  -9.0398  -9.0394  -8.7700  -8.7691  -8.6576  -8.6572  -8.4710
    -8.4706  -8.4256  -8.4254  -8.3916  -7.7656  -7.7652  -7.5549  -7.5547
    -7.3745  -7.2800  -7.2797  -7.2730  -7.2725  -7.2504  -7.2503  -6.5386
    -6.5386  -5.7202  -5.7201  -4.8392  -4.8387  -3.9915  -3.9911  -3.5409
    -1.4007  -0.9279  -0.9275  -0.0147  -0.0142   0.9706   0.9708   1.8904
     1.9233   1.9234   2.1136   2.1139   2.3866   2.4151   2.5527   2.6730
     2.6730   2.7839   2.7839   2.8141   2.8695   2.8697   2.9803   2.9808
     3.0318   3.1128   3.1129   3.2104   3.2699   3.2700   3.2700   3.3564
     3.5040   3.5147   3.6681   3.6946   3.6947   3.6967   3.7009   3.8912
     3.8936   3.8937   4.0077   4.0265   4.0266   4.0447   4.0618   4.0854
     4.0854   4.1917   4.1918   4.2084   4.4844   4.4986   4.5046   4.5449
     4.5453   4.5454   4.6445   4.6522   4.6748   4.6749   5.0289   5.0290
     5.0681   5.0684   5.0950   5.1339   5.1435   5.2663

          k = 0.2500 0.0000 0.0000 ( 63737 PWs)   bands (ev):

   -21.0258 -20.9655 -20.9650 -20.7846 -20.7834 -20.4837 -20.4833 -20.0666
   -20.0661 -19.5362 -19.5361 -18.8982 -18.8982 -18.1603 -18.1603 -17.3357
   -17.3354 -16.4572 -16.4570 -15.8155 -14.9696 -14.3139 -14.3137 -13.4396
   -13.4390 -12.7199 -12.7196 -12.3122 -12.1983 -12.1978 -12.1283 -12.1279
   -11.8165 -11.8155 -11.5488 -11.5488 -11.1053 -11.1050 -10.9319 -10.9319
   -10.2769 -10.2768 -10.1683 -10.1681  -9.6156  -9.6152  -9.2072  -9.2072
    -9.0430  -9.0429  -8.9325  -8.8121  -8.8118  -8.7011  -8.6315  -8.6306
    -8.4241  -8.4239  -8.3383  -8.3380  -7.6427  -7.6423  -7.6177  -7.6175
    -7.6035  -7.4852  -7.4848  -7.4195  -7.4190  -7.1005  -7.1004  -6.3919
    -6.3919  -5.5794  -5.5792  -4.7023  -4.7018  -3.8461  -3.8458  -3.3712
    -1.5384  -1.0502  -1.0499  -0.1536  -0.1530   0.7923   0.7924   1.7008
     1.7010   2.0855   2.3080   2.3083   2.5273   2.5273   2.5820   2.6098
     2.7508   2.8682   2.8682   3.0103   3.0648   3.0650   3.1454   3.1567
     3.1780   3.2679   3.3089   3.3090   3.3179   3.4062   3.4678   3.4679
     3.4793   3.5556   3.7990   3.7993   3.8626   3.8850   3.8912   3.8966
     3.8967   4.0854   4.0910   4.0910   4.2028   4.2419   4.2575   4.2631
     4.2632   4.3144   4.3179   4.3879   4.3879   4.4054   4.6988   4.7248
     4.7402   4.7403   4.8403   4.8485   4.8521   4.8521   4.8946   4.8949
     5.2088   5.2324   5.2325   5.2865   5.3302   5.3392

          k = 0.2667 0.0000 0.0000 ( 63705 PWs)   bands (ev):

   -20.8745 -20.8143 -20.8138 -20.6337 -20.6326 -20.3336 -20.3331 -19.9174
   -19.9169 -19.3885 -19.3885 -18.7528 -18.7528 -18.0184 -18.0183 -17.1990
   -17.1987 -16.3277 -16.3275 -15.6852 -14.9161 -14.2920 -14.2918 -13.5315
   -13.5309 -12.9404 -12.9400 -12.5778 -12.4338 -12.4333 -12.4166 -12.4162
   -11.9524 -11.9515 -11.8651 -11.8651 -11.2592 -11.2592 -11.1309 -11.1307
   -10.6058 -10.6057 -10.1507 -10.1505  -9.9374  -9.9369  -9.3300  -9.3297
    -9.1955  -9.1955  -9.0119  -8.7720  -8.6800  -8.6796  -8.4770  -8.4760
    -8.4310  -8.4308  -8.2169  -8.2165  -7.8314  -7.6919  -7.6915  -7.6625
    -7.6622  -7.5674  -7.5669  -7.5004  -7.5000  -6.9420  -6.9420  -6.2382
    -6.2381  -5.4333  -5.4331  -4.5623  -4.5619  -3.6983  -3.6980  -3.1905
    -1.6953  -1.1834  -1.1831  -0.3043  -0.3039   0.6000   0.6002   1.4645
     1.4646   2.2576   2.2576   2.2940   2.5157   2.5160   2.7904   2.8176
     2.9381   2.9391   2.9625   3.0726   3.0726   3.2308   3.2715   3.2717
     3.3886   3.4033   3.4653   3.4975   3.4977   3.5785   3.5787   3.6154
     3.6799   3.6800   3.6872   3.7684   4.0544   4.0606   4.0949   4.1043
     4.1044   4.1154   4.1387   4.2994   4.3008   4.3008   4.4161   4.4525
     4.4675   4.4676   4.4678   4.5938   4.5938   4.6160   4.6765   4.6769
     4.9106   4.9328   4.9473   4.9473   4.9558   5.0493   5.0581   5.0604
     5.0605   5.4343   5.4344   5.4898   5.5396   5.5482

          k = 0.2833 0.0000 0.0000 ( 63677 PWs)   bands (ev):

   -20.7138 -20.6537 -20.6532 -20.4735 -20.4724 -20.1741 -20.1736 -19.7590
   -19.7586 -19.2319 -19.2318 -18.5987 -18.5987 -17.8682 -17.8682 -17.0551
   -17.0548 -16.1928 -16.1927 -15.5466 -14.8922 -14.3133 -14.3130 -13.6878
   -13.6871 -13.2001 -13.1998 -12.8059 -12.7216 -12.7212 -12.6153 -12.6149
   -12.1888 -12.1887 -12.0155 -12.0148 -11.5900 -11.5900 -11.1112 -11.1110
   -10.9371 -10.9370 -10.2628 -10.2624 -10.1130 -10.1128  -9.6433  -9.6429
    -9.3227  -9.1766  -9.1766  -8.6277  -8.5289  -8.5284  -8.4448  -8.4445
    -8.3260  -8.3251  -8.1392  -8.1389  -8.0386  -7.8875  -7.8871  -7.7054
    -7.7048  -7.6582  -7.6579  -7.3424  -7.3420  -6.7756  -6.7756  -6.0784
    -6.0783  -5.2836  -5.2835  -4.4221  -4.4218  -3.5527  -3.5524  -2.9987
    -1.8713  -1.3226  -1.3224  -0.4637  -0.4632   0.3968   0.3969   1.2169
     1.2170   1.9777   1.9778   2.5158   2.6555   2.6558   2.7367   2.7370
     3.0115   3.0378   3.1876   3.2078   3.2079   3.3627   3.3628   3.4557
     3.5024   3.5026   3.6125   3.6239   3.6828   3.7502   3.7503   3.8361
     3.8622   3.8643   3.9056   3.9056   3.9117   3.9955   4.2960   4.3194
     4.3194   4.3281   4.3282   4.4153   4.4157   4.5194   4.5362   4.5362
     4.6392   4.6767   4.6786   4.6830   4.6831   4.6919   4.8233   4.8233
     4.8400   5.1359   5.1541   5.1629   5.1629   5.2613   5.2614   5.2708
     5.2806   5.6422   5.6422   5.6937   5.7582   5.7609

          k = 0.3000 0.0000 0.0000 ( 63697 PWs)   bands (ev):

   -20.5437 -20.4838 -20.4833 -20.3040 -20.3029 -20.0054 -20.0049 -19.5916
   -19.5911 -19.0663 -19.0662 -18.4361 -18.4361 -17.7103 -17.7102 -16.9049
   -16.9046 -16.0549 -16.0548 -15.3998 -14.9142 -14.3919 -14.3917 -13.8989
   -13.8982 -13.4846 -13.4843 -13.0363 -13.0359 -12.9789 -12.7254 -12.7250
   -12.5162 -12.5162 -12.0137 -12.0131 -11.9222 -11.9222 -11.2687 -11.2686
   -11.0593 -11.0591 -10.5888 -10.5883 -10.0612 -10.0609  -9.9589  -9.9586
    -9.6324  -9.1531  -9.1531  -8.5837  -8.4647  -8.4645  -8.4363  -8.4359
    -8.2228  -8.2220  -8.1401  -8.1377  -8.1375  -8.0163  -8.0159  -7.7909
    -7.7901  -7.5735  -7.5731  -7.1713  -7.1709  -6.6021  -6.6021  -5.9139
    -5.9139  -5.1325  -5.1324  -4.2857  -4.2854  -3.4173  -3.4171  -2.7960
    -2.0660  -1.4595  -1.4592  -0.6266  -0.6263   0.1863   0.1865   0.9615
     0.9616   1.6906   1.6907   2.3609   2.3612   2.7510   2.9709   2.9712
     2.9778   2.9781   3.2419   3.2665   3.4262   3.5562   3.5563   3.6104
     3.6118   3.6957   3.7318   3.7320   3.8507   3.8607   3.9176   3.9834
     3.9834   4.0730   4.1375   4.1376   4.1501   4.1628   4.1631   4.2353
     4.3821   4.5288   4.5460   4.5578   4.5656   4.5657   4.7538   4.7674
     4.7675   4.8757   4.9053   4.9054   4.9142   4.9296   5.0586   5.0586
     5.0776   5.3716   5.3717   5.3747   5.3876   5.4659   5.4661   5.5008
     5.5125   5.7125   5.7189   5.8333   5.8334   5.9511

          k = 0.3167 0.0000 0.0000 ( 63641 PWs)   bands (ev):

   -20.3644 -20.3046 -20.3041 -20.1254 -20.1242 -19.8275 -19.8271 -19.4151
   -19.4147 -18.8920 -18.8920 -18.2652 -18.2652 -17.5451 -17.5450 -16.7499
   -16.7497 -15.9187 -15.9186 -15.2447 -14.9966 -14.5273 -14.5271 -14.1463
   -14.1455 -13.7829 -13.7825 -13.3557 -13.3553 -13.0813 -12.8449 -12.8448
   -12.7588 -12.7584 -12.2540 -12.2539 -11.9631 -11.9625 -11.5992 -11.5991
   -10.9849 -10.9847 -10.9136 -10.9131 -10.2736 -10.2733  -9.9991  -9.9988
    -9.9399  -9.1268  -9.1268  -8.7313  -8.5227  -8.5223  -8.4902  -8.4900
    -8.2553  -8.2547  -8.1966  -8.1964  -8.0435  -7.9596  -7.9591  -7.7361
    -7.7352  -7.4249  -7.4245  -6.9893  -6.9889  -6.4225  -6.4225  -5.7463
    -5.7463  -4.9829  -4.9828  -4.1584  -4.1582  -3.3055  -3.3054  -2.5826
    -2.2784  -1.5794  -1.5793  -0.7862  -0.7860  -0.0265  -0.0264   0.7019
     0.7020   1.3992   1.3993   2.0601   2.0603   2.6939   2.6942   2.9994
     3.2184   3.2187   3.3066   3.3074   3.5174   3.5415   3.6781   3.8008
     3.8009   3.8378   3.8382   3.9496   3.9986   3.9987   4.0706   4.1013
     4.1116   4.1668   4.2410   4.2411   4.3209   4.3984   4.3985   4.4022
     4.4887   4.7743   4.7846   4.8099   4.8156   4.8157   5.0009   5.0179
     5.0179   5.1229   5.1230   5.1252   5.1649   5.1805   5.3050   5.3050
     5.3286   5.5293   5.5294   5.5883   5.5952   5.6267   5.6311   5.6925
     5.6926   5.7727   5.7805   5.9882   5.9883   6.1377

          k = 0.3333 0.0000 0.0000 ( 63646 PWs)   bands (ev):

   -20.1760 -20.1163 -20.1158 -19.9376 -19.9365 -19.6407 -19.6403 -19.2299
   -19.2294 -18.7092 -18.7092 -18.0865 -18.0865 -17.3736 -17.3735 -16.5928
   -16.5926 -15.7957 -15.7956 -15.1433 -15.0815 -14.6967 -14.6965 -14.4119
   -14.4110 -14.0873 -14.0869 -13.6764 -13.6760 -13.1726 -13.1726 -13.1087
   -12.7262 -12.7259 -12.5839 -12.5838 -11.9273 -11.9272 -11.8783 -11.8777
   -11.2359 -11.2354 -10.8942 -10.8941 -10.5859 -10.5855 -10.2446  -9.9295
    -9.9292  -9.0993  -9.0992  -8.9597  -8.7191  -8.7187  -8.5213  -8.5210
    -8.3913  -8.3907  -8.2861  -8.2859  -7.8591  -7.7860  -7.7855  -7.5734
    -7.5724  -7.2427  -7.2423  -6.7980  -6.7976  -6.2382  -6.2381  -5.5779
    -5.5778  -4.8387  -4.8386  -4.0479  -4.0478  -3.2378  -3.2377  -2.5071
    -2.3586  -1.6608  -1.6607  -0.9333  -0.9331  -0.2360  -0.2359   0.4423
     0.4424   1.1065   1.1066   1.7559   1.7562   2.3979   2.3982   3.0249
     3.0258   3.2610   3.4774   3.4777   3.5401   3.5405   3.7477   3.7669
     3.7913   3.9434   4.0651   4.0651   4.2171   4.2493   4.2495   4.3652
     4.3759   4.4295   4.5046   4.5046   4.5809   4.6645   4.6645   4.6679
     4.7555   5.0312   5.0331   5.0756   5.0762   5.0762   5.2598   5.2787
     5.2788   5.3018   5.3019   5.3868   5.4284   5.4381   5.4864   5.4969
     5.5555   5.5555   5.5930   5.6667   5.6669   5.8786   5.8913   5.9388
     5.9389   5.9672   5.9672   6.0267   6.0375   6.1818

          k = 0.3500 0.0000 0.0000 ( 63666 PWs)   bands (ev):

   -19.9785 -19.9190 -19.9185 -19.7409 -19.7397 -19.4451 -19.4446 -19.0360
   -19.0355 -18.5182 -18.5182 -17.9005 -17.9005 -17.1973 -17.1972 -16.4392
   -16.4390 -15.7153 -15.7152 -15.3444 -14.9101 -14.8528 -14.8528 -14.6794
   -14.6786 -14.3916 -14.3912 -13.9954 -13.9950 -13.4978 -13.4978 -13.0699
   -12.9107 -12.9107 -12.6448 -12.6444 -12.2521 -12.2520 -11.7694 -11.7689
   -11.5548 -11.5543 -10.8948 -10.8945 -10.7914 -10.7912 -10.5456  -9.8543
    -9.8541  -9.2088  -9.0715  -9.0715  -8.9439  -8.9435  -8.5616  -8.5610
    -8.5576  -8.5574  -8.3918  -8.3916  -7.6460  -7.5768  -7.5763  -7.3716
    -7.3706  -7.0417  -7.0413  -6.5992  -6.5988  -6.0506  -6.0506  -5.4114
    -5.4113  -4.7050  -4.7050  -3.9640  -3.9640  -3.2374  -3.2372  -2.7504
    -2.1242  -1.6788  -1.6787  -1.0561  -1.0561  -0.4349  -0.4349   0.1874
     0.1875   0.8159   0.8160   1.4510   1.4512   2.0947   2.0950   2.7210
     2.7219   3.2189   3.2194   3.4166   3.5357   3.7531   3.7534   4.0403
     4.0639   4.2217   4.3416   4.3416   4.4983   4.5223   4.5225   4.6421
     4.6533   4.7047   4.7824   4.7825   4.8525   4.9432   4.9433   4.9467
     5.0351   5.2891   5.2976   5.3215   5.3215   5.3536   5.3860   5.3868
     5.4090   5.4091   5.5288   5.5592   5.5592   5.6589   5.7058   5.7262
     5.7841   5.7843   5.8134   5.8135   5.8706   5.8902   5.8903   6.1029
     6.1645   6.2205   6.2206   6.2373   6.3004   6.3126

          k = 0.3667 0.0000 0.0000 ( 63678 PWs)   bands (ev):

   -19.7721 -19.7129 -19.7124 -19.5353 -19.5342 -19.2408 -19.2403 -18.8337
   -18.8332 -18.3195 -18.3194 -17.7082 -17.7082 -17.0189 -17.0189 -16.3011
   -16.3010 -15.7362 -15.7359 -15.5841 -14.9298 -14.9291 -14.9224 -14.9223
   -14.7307 -14.6901 -14.6897 -14.3102 -14.3098 -13.8189 -13.8188 -13.2333
   -13.2332 -12.9805 -12.5727 -12.5725 -12.5289 -12.5285 -11.8696 -11.8691
   -11.6430 -11.6425 -11.1998 -11.1995 -10.8424 -10.6790 -10.6788  -9.7750
    -9.7747  -9.4651  -9.1781  -9.1778  -9.0444  -9.0444  -8.7450  -8.7445
    -8.5993  -8.5991  -8.5078  -8.5077  -7.4173  -7.3506  -7.3501  -7.1517
    -7.1507  -6.8283  -6.8279  -6.3944  -6.3940  -5.8621  -5.8621  -5.2506
    -5.2505  -4.5884  -4.5883  -3.9184  -3.9181  -3.3158  -3.3154  -3.0066
    -1.8797  -1.6202  -1.6199  -1.1415  -1.1413  -0.6149  -0.6148  -0.0572
    -0.0572   0.5310   0.5311   1.1478   1.1481   1.7876   1.7879   2.4077
     2.4086   2.8913   2.8918   3.0801   3.8234   4.0397   4.0400   4.3280
     4.3506   4.5130   4.6317   4.6317   4.7927   4.8086   4.8088   4.9316
     4.9422   4.9893   5.0733   5.0733   5.1342   5.2316   5.2317   5.2343
     5.3034   5.3051   5.3267   5.3960   5.3961   5.5488   5.5705   5.5866
     5.5868   5.6480   5.7089   5.7089   5.8023   5.8565   5.8565   5.9335
     5.9952   6.0173   6.0732   6.0732   6.1614   6.1664   6.1665   6.2547
     6.3173   6.3572   6.3857   6.5055   6.5056   6.5171

          k = 0.3833 0.0000 0.0000 ( 63694 PWs)   bands (ev):

   -19.5570 -19.4980 -19.4975 -19.3212 -19.3200 -19.0280 -19.0275 -18.6234
   -18.6229 -18.1135 -18.1134 -17.5111 -17.5111 -16.8440 -16.8440 -16.2074
   -16.2071 -15.8862 -15.8858 -15.8481 -15.1301 -15.1296 -14.9752 -14.9749
   -14.8671 -14.8669 -14.6180 -14.6176 -14.5432 -14.1344 -14.1343 -13.5506
   -13.5505 -12.8881 -12.8880 -12.8543 -12.3884 -12.3881 -12.1794 -12.1789
   -11.5031 -11.5026 -11.5000 -11.4997 -11.1345 -10.5590 -10.5589  -9.7238
    -9.6927  -9.6925  -9.4161  -9.4157  -9.0188  -9.0188  -8.9352  -8.9346
    -8.6462  -8.6460  -8.6313  -8.6311  -7.1772  -7.1126  -7.1121  -6.9201
    -6.9190  -6.6062  -6.6058  -6.1856  -6.1852  -5.6753  -5.6753  -5.1002
    -5.1001  -4.4969  -4.4968  -3.9215  -3.9210  -3.4638  -3.4634  -3.2734
    -1.6253  -1.4921  -1.4917  -1.1767  -1.1763  -0.7658  -0.7658  -0.2852
    -0.2851   0.2560   0.2560   0.8494   0.8497   1.4794   1.4797   2.0892
     2.0901   2.5589   2.5594   2.7403   4.1241   4.3392   4.3395   4.6290
     4.6506   4.8171   4.9350   4.9350   5.0970   5.1072   5.1074   5.1927
     5.1946   5.2326   5.2830   5.3318   5.3691   5.3692   5.4233   5.4283
     5.4286   5.4416   5.4418   5.5476   5.5851   5.5851   5.6273   5.8060
     5.8428   5.9543   5.9761   5.9762   6.0351   6.1085   6.1579   6.1580
     6.2509   6.2969   6.3200   6.3223   6.3633   6.3634   6.4131   6.4501
     6.4635   6.4636   6.4651   6.7887   6.7925   6.7926

          k = 0.4000 0.0000 0.0000 ( 63738 PWs)   bands (ev):

   -19.3333 -19.2746 -19.2740 -19.0986 -19.0974 -18.8071 -18.8066 -18.4054
   -18.4049 -17.9013 -17.9012 -17.3119 -17.3118 -16.6848 -16.6847 -16.2106
   -16.2099 -16.1260 -16.1157 -16.1152 -15.2333 -15.2330 -15.2249 -15.2248
   -14.9152 -14.9148 -14.7301 -14.7298 -14.4427 -14.4426 -14.3477 -13.8617
   -13.8617 -13.1977 -13.1976 -12.7013 -12.4838 -12.4833 -12.2297 -12.2294
   -11.7949 -11.7946 -11.4213 -11.3524 -11.3520 -10.4330 -10.4328  -9.9826
    -9.6552  -9.6549  -9.6085  -9.6083  -9.1292  -9.1287  -8.9954  -8.9953
    -8.7606  -8.7604  -8.6982  -8.6980  -6.9274  -6.8650  -6.8645  -6.6795
    -6.6785  -6.3776  -6.3772  -5.9750  -5.9746  -5.4938  -5.4937  -4.9663
    -4.9662  -4.4395  -4.4394  -3.9793  -3.9787  -3.6623  -3.6618  -3.5491
    -1.3613  -1.3120  -1.3116  -1.1539  -1.1534  -0.8773  -0.8772  -0.4890
    -0.4889  -0.0045  -0.0044   0.5589   0.5591   1.1729   1.1733   1.7687
     1.7697   2.2245   2.2249   2.3992   4.4376   4.6515   4.6519   4.9430
     4.9635   5.1336   5.1604   5.1611   5.2511   5.2512   5.3434   5.3434
     5.4173   5.4175   5.4270   5.4550   5.4551   5.5435   5.5749   5.6268
     5.7009   5.7009   5.7138   5.8663   5.8783   5.8784   5.9172   5.9700
     5.9806   6.0820   6.1155   6.2742   6.2903   6.2903   6.4253   6.4733
     6.4733   6.5428   6.6057   6.6101   6.6408   6.6586   6.6662   6.6663
     6.7577   6.7578   6.7813   6.9526   6.9526   7.1052

          k = 0.4167 0.0000 0.0000 ( 63706 PWs)   bands (ev):

   -19.1012 -19.0428 -19.0423 -18.8678 -18.8667 -18.5783 -18.5778 -18.1804
   -18.1800 -17.6843 -17.6843 -17.1159 -17.1159 -16.5694 -16.5692 -16.4109
   -16.3791 -16.3786 -16.3396 -16.3386 -15.4350 -15.4348 -15.1957 -15.1953
   -15.1835 -15.1833 -14.7418 -14.7417 -14.5528 -14.5525 -14.1656 -14.1655
   -14.1444 -13.5008 -13.5006 -12.7819 -12.7814 -12.5281 -12.0841 -12.0837
   -12.0567 -12.0563 -11.7024 -11.1928 -11.1923 -10.3018 -10.3017 -10.2403
    -9.8940  -9.8936  -9.5232  -9.5229  -9.3252  -9.3247  -8.9746  -8.9746
    -8.8944  -8.8942  -8.7552  -8.7550  -6.6691  -6.6093  -6.6088  -6.4319
    -6.4308  -6.1446  -6.1442  -5.7655  -5.7651  -5.3220  -5.3220  -4.8562
    -4.8560  -4.4245  -4.4243  -4.0907  -4.0899  -3.8939  -3.8934  -3.8314
    -1.0956  -1.0951  -1.0879  -1.0728  -1.0721  -0.9394  -0.9393  -0.6601
    -0.6600  -0.2447  -0.2447   0.2798   0.2801   0.8713   0.8716   1.4491
     1.4501   1.8901   1.8906   2.0586   4.7637   4.9764   4.9767   5.1301
     5.1302   5.2421   5.2421   5.2697   5.2892   5.4620   5.5010   5.5010
     5.5826   5.5827   5.7382   5.7384   5.7613   5.8242   5.8246   5.8591
     5.9038   5.9535   5.9929   6.0309   6.0310   6.1986   6.1994   6.2092
     6.2092   6.3554   6.3659   6.6075   6.6185   6.6185   6.7044   6.7339
     6.7339   6.7904   6.8138   6.8138   6.8702   6.9339   6.9550   6.9724
     7.0064   7.0065   7.1088   7.1392   7.1392   7.4379

          k = 0.4333 0.0000 0.0000 ( 63690 PWs)   bands (ev):

   -18.8610 -18.8029 -18.8024 -18.6292 -18.6280 -18.3421 -18.3417 -17.9494
   -17.9489 -17.4653 -17.4652 -16.9352 -16.9350 -16.6984 -16.6559 -16.6554
   -16.5530 -16.5519 -16.5503 -16.5500 -15.5272 -15.5271 -15.4470 -15.4467
   -15.0458 -15.0454 -15.0285 -15.0285 -14.4609 -14.4608 -14.3531 -14.3528
   -13.9332 -13.7965 -13.7964 -13.0734 -13.0729 -12.3670 -12.3667 -12.3392
   -11.9776 -11.8720 -11.8716 -11.0255 -11.0251 -10.4955 -10.1667 -10.1665
   -10.1312 -10.1309  -9.5222  -9.5216  -9.4376  -9.4373  -9.0318  -9.0316
    -8.9570  -8.9570  -8.8170  -8.8168  -6.4032  -6.3465  -6.3460  -6.1787
    -6.1777  -5.9096  -5.9092  -5.5605  -5.5600  -5.1658  -5.1658  -4.7778
    -4.7776  -4.4572  -4.4569  -4.2482  -4.2473  -4.1467  -4.1462  -4.1186
    -0.9456  -0.9455  -0.9391  -0.9384  -0.8531  -0.8526  -0.8055  -0.7894
    -0.7893  -0.4581  -0.4581   0.0165   0.0167   0.5775   0.5778   1.1329
     1.1338   1.5577   1.5581   1.7199   5.1021   5.1170   5.1170   5.1562
     5.1562   5.3136   5.3140   5.5650   5.5650   5.6088   5.6271   5.6813
     5.6813   5.8016   5.9236   5.9236   6.0683   6.0685   6.1099   6.1636
     6.2410   6.2469   6.2949   6.3748   6.3749   6.4364   6.5441   6.5545
     6.5546   6.5820   6.5820   6.6333   6.6839   6.9541   6.9671   6.9671
     7.0110   7.0682   7.1451   7.1452   7.1838   7.2662   7.2881   7.3167
     7.3400   7.3401   7.4361   7.4722   7.4723   7.5644

          k = 0.4500 0.0000 0.0000 ( 63738 PWs)   bands (ev):

   -18.6130 -18.5553 -18.5548 -18.3831 -18.3819 -18.0993 -18.0989 -17.7138
   -17.7134 -17.2494 -17.2494 -16.9854 -16.9371 -16.9366 -16.8039 -16.8027
   -16.7972 -16.7970 -16.6595 -16.6591 -15.6410 -15.6408 -15.4773 -15.4772
   -15.2974 -15.2973 -14.8576 -14.8572 -14.7459 -14.7458 -14.1382 -14.1379
   -14.0841 -14.0839 -13.7143 -13.3577 -13.3572 -12.6434 -12.6431 -12.2464
   -12.1375 -11.6775 -11.6771 -10.8518 -10.8513 -10.7473 -10.3660 -10.3657
   -10.0283 -10.0281  -9.7190  -9.7185  -9.3523  -9.3521  -9.1720  -9.1718
    -8.9429  -8.9429  -8.8833  -8.8830  -6.1307  -6.0776  -6.0771  -5.9218
    -5.9207  -5.6752  -5.6748  -5.3644  -5.3640  -5.0320  -5.0320  -4.7387
    -4.7385  -4.5381  -4.5378  -4.4417  -4.4407  -4.4130  -4.4125  -4.4088
    -0.8943  -0.8941  -0.8685  -0.8683  -0.7619  -0.7611  -0.6371  -0.6371
    -0.5911  -0.5907  -0.5145  -0.2262  -0.2260   0.2947   0.2950   0.8224
     0.8233   1.2288   1.2292   1.3842   5.0884   5.0884   5.1230   5.1230
     5.4525   5.5508   5.5508   5.6438   5.6439   5.6629   5.6632   5.9599
     5.9768   6.1512   6.2779   6.2779   6.4054   6.4057   6.4165   6.4166
     6.4220   6.4514   6.4720   6.6029   6.6494   6.7093   6.7317   6.7317
     6.9023   6.9155   6.9156   6.9383   7.0392   7.3138   7.3247   7.3247
     7.3419   7.3759   7.4568   7.4576   7.4935   7.4936   7.5241   7.6057
     7.6398   7.6773   7.6776   7.6895   7.6896   7.8174

          k = 0.4667 0.0000 0.0000 ( 63754 PWs)   bands (ev):

   -18.3574 -18.3003 -18.2998 -18.1300 -18.1289 -17.8508 -17.8503 -17.4764
   -17.4759 -17.2698 -17.2181 -17.2176 -17.0690 -17.0679 -17.0483 -17.0482
   -16.8567 -16.8563 -16.7548 -16.7545 -15.7248 -15.7247 -15.5366 -15.5365
   -15.3250 -15.3249 -15.0177 -15.0176 -14.6417 -14.6412 -14.3624 -14.3623
   -13.9115 -13.9112 -13.6341 -13.6337 -13.4879 -12.9128 -12.9124 -12.5087
   -11.9250 -11.4745 -11.4741 -10.9949 -10.6725 -10.6720 -10.5975 -10.5971
    -9.9148  -9.9143  -9.8875  -9.8873  -9.3141  -9.3140  -9.2681  -9.2679
    -8.9536  -8.9534  -8.9326  -8.9326  -5.8523  -5.8038  -5.8033  -5.6627
    -5.6617  -5.4447  -5.4443  -5.1827  -5.1823  -4.9284  -4.9284  -4.7444
    -4.7441  -4.7004  -4.6873  -4.6869  -4.6629  -4.6625  -4.6613  -4.6603
    -0.8912  -0.8911  -0.7889  -0.7887  -0.7735  -0.7734  -0.5499  -0.5491
    -0.4421  -0.4419  -0.3137  -0.3132  -0.2154   0.0270   0.0273   0.5201
     0.5210   0.9049   0.9054   1.0527   5.0394   5.0394   5.1483   5.1483
     5.4356   5.4356   5.7383   5.7383   5.8144   6.0236   6.0240   6.2577
     6.2577   6.3218   6.3368   6.5086   6.6281   6.6394   6.6440   6.6441
     6.7461   6.7464   6.8472   6.9713   7.0166   7.0420   7.1010   7.1011
     7.2728   7.2771   7.2886   7.2887   7.3076   7.3077   7.3391   7.4117
     7.5448   7.5452   7.6876   7.6907   7.6958   7.6958   7.7043   7.8446
     7.8447   7.8537   7.8820   7.8982   7.9088   7.9091

          k = 0.4833 0.0000 0.0000 ( 63782 PWs)   bands (ev):

   -18.0947 -18.0384 -18.0379 -17.8707 -17.8696 -17.5980 -17.5976 -17.5502
   -17.4963 -17.4958 -17.3381 -17.3370 -17.2422 -17.2417 -17.0931 -17.0926
   -16.8886 -16.8886 -16.8430 -16.8426 -15.7191 -15.7191 -15.6630 -15.6630
   -15.2711 -15.2710 -15.1189 -15.1188 -14.6298 -14.6297 -14.4077 -14.4073
   -13.9020 -13.9016 -13.6748 -13.6744 -13.2539 -13.1748 -13.1744 -12.7642
   -11.7034 -11.2641 -11.2638 -11.2373 -10.8248 -10.8245 -10.4884 -10.4879
   -10.1088 -10.1083  -9.7449  -9.7447  -9.4575  -9.4573  -9.1856  -9.1853
    -9.0278  -9.0276  -8.9264  -8.9263  -5.5690  -5.5263  -5.5258  -5.4038
    -5.4028  -5.2223  -5.2219  -5.0223  -5.0219  -4.9919  -4.9661  -4.9656
    -4.8989  -4.8979  -4.8624  -4.8624  -4.8241  -4.8237  -4.7960  -4.7957
    -0.8592  -0.8592  -0.8558  -0.8556  -0.6363  -0.6361  -0.6243  -0.6241
    -0.3106  -0.3097  -0.2212  -0.2209  -0.0235  -0.0230   0.0915   0.2284
     0.2293   0.5873   0.5878   0.7262   5.0099   5.0099   5.1926   5.1927
     5.3369   5.3370   5.8478   5.8478   6.1087   6.1087   6.1869   6.3952
     6.3955   6.6877   6.6980   6.8188   6.8280   6.8700   6.9557   7.0204
     7.0204   7.0849   7.0851   7.1410   7.1412   7.1633   7.1636   7.2352
     7.3512   7.3959   7.4102   7.4825   7.4825   7.4936   7.5077   7.5656
     7.6385   7.6551   7.6743   7.6743   7.6808   7.6811   7.7982   7.8195
     7.8196   8.0443   8.0469   8.0532   8.0739   8.0795

          k = 0.5000 0.0000 0.0000 ( 63714 PWs)   bands (ev):

   -17.8270 -17.8238 -17.7717 -17.7712 -17.7685 -17.7680 -17.6078 -17.6067
   -17.6046 -17.6035 -17.3453 -17.3449 -17.3422 -17.3418 -17.0237 -17.0233
   -17.0212 -17.0207 -16.8228 -16.8228 -15.7925 -15.7925 -15.4961 -15.4961
   -15.4934 -15.4934 -14.8853 -14.8852 -14.8819 -14.8818 -14.1622 -14.1618
   -14.1585 -14.1580 -13.4310 -13.4307 -13.4269 -13.4265 -13.0149 -13.0103
   -11.4746 -11.4730 -11.0483 -11.0480 -11.0463 -11.0459 -10.3013 -10.3008
   -10.2992 -10.2988  -9.6023  -9.6021  -9.6003  -9.6002  -9.1058  -9.1056
    -9.1047  -9.1045  -8.9242  -8.9242  -5.2836  -5.2801  -5.2482  -5.2477
    -5.2447  -5.2442  -5.1495  -5.1485  -5.1464  -5.1454  -5.0145  -5.0141
    -5.0118  -5.0115  -4.8915  -4.8912  -4.8900  -4.8897  -4.8397  -4.8396
    -0.8886  -0.8885  -0.7656  -0.7654  -0.7639  -0.7637  -0.4460  -0.4458
    -0.4430  -0.4427  -0.0516  -0.0507  -0.0477  -0.0468   0.2752   0.2756
     0.2796   0.2801   0.4033   0.4079   5.0001   5.0001   5.2551   5.2551
     5.2564   5.2564   5.9704   5.9704   5.9728   5.9728   6.5683   6.5686
     6.7759   6.7762   6.7764   6.7767   6.9606   6.9609   6.9631   6.9635
     7.1050   7.1054   7.1211   7.1215   7.2276   7.2277   7.3869   7.3871
     7.3873   7.3874   7.4282   7.4284   7.4288   7.4290   7.6355   7.6356
     7.7416   7.7417   7.7866   7.7869   7.7988   7.7990   7.8750   7.8751
     7.8758   7.8758   8.0141   8.0143   8.0470   8.0471

     Writing output data file ./mol.save

     init_run     :     25.22s CPU     16.85s WALL (       1 calls)
     electrons    :  37829.75s CPU  21842.99s WALL (       1 calls)

     Called by init_run:
     wfcinit      :      0.00s CPU      0.00s WALL (       1 calls)
     wfcinit:atom :      4.14s CPU      2.38s WALL (      31 calls)
     wfcinit:wfcr :   1686.95s CPU    784.64s WALL (      31 calls)
     potinit      :      7.11s CPU      3.00s WALL (       1 calls)

     Called by electrons:
     c_bands      :  37829.75s CPU  21842.99s WALL (       1 calls)
     v_of_rho     :      2.68s CPU      2.05s WALL (       1 calls)
     v_h          :      0.23s CPU      0.14s WALL (       1 calls)
     v_xc         :      2.45s CPU      1.91s WALL (       1 calls)
     newd         :     10.12s CPU      6.10s WALL (       1 calls)
     PAW_pot      :      3.92s CPU      0.49s WALL (       1 calls)

     Called by c_bands:
     init_us_2    :      4.38s CPU      1.60s WALL (      31 calls)
     cegterg      :  36107.98s CPU  21026.19s WALL (      93 calls)

     Called by sum_band:

     Called by *egterg:
     h_psi        :  24317.71s CPU   8292.85s WALL (    1602 calls)
     s_psi        :   2121.75s CPU   2121.79s WALL (    1602 calls)
     g_psi        :     14.49s CPU     14.49s WALL (    1478 calls)
     cdiaghg      :    297.45s CPU    297.46s WALL (    1509 calls)
     cegterg:over :   4829.56s CPU   4829.62s WALL (    1478 calls)
     cegterg:upda :   3045.78s CPU   3045.81s WALL (    1478 calls)
     cegterg:last :   2569.99s CPU   2570.02s WALL (     202 calls)

     Called by h_psi:
     h_psi:pot    :  24304.27s CPU   8278.33s WALL (    1602 calls)
     h_psi:calbec :   2607.40s CPU   2469.57s WALL (    1602 calls)
     vloc_psi     :  19575.33s CPU   3687.19s WALL (    1602 calls)
     add_vuspsi   :   2121.53s CPU   2121.57s WALL (    1602 calls)

     General routines
     calbec       :   2607.39s CPU   2469.57s WALL (    1602 calls)
     fft          :      1.44s CPU      1.35s WALL (      13 calls)
     ffts         :      0.03s CPU      0.03s WALL (       1 calls)
     fftw         :  18621.38s CPU   3336.62s WALL (  175902 calls)
     interpolate  :      0.15s CPU      0.14s WALL (       1 calls)
     davcio       :      0.03s CPU      2.41s WALL (      62 calls)


     PAW routines
     PAW_pot      :      3.92s CPU      0.49s WALL (       1 calls)

     PWSCF        :    10h31m CPU        6h 4m WALL


   This run was terminated on:   2:26:42  22Nov2018            

=------------------------------------------------------------------------------=
   JOB DONE.
=------------------------------------------------------------------------------=
