
     Program PWSCF v.6.0 starts on 21Nov2018 at 17:14:26 

     This program is part of the open-source Quantum ESPRESSO suite
     for quantum simulation of materials; please cite
         "P. Giannozzi et al., J. Phys.:Condens. Matter 21 395502 (2009);
          URL http://www.quantum-espresso.org", 
     in publications or presentations arising from this work. More details at
     http://www.quantum-espresso.org/quote

     Serial multi-threaded version, running on    8 processor cores
     Waiting for input...
     Reading input from standard input

     Current dimensions of program PWSCF are:
     Max number of different atomic species (ntypx) = 10
     Max number of k-points (npk) =  40000
     Max angular momentum in pseudopotentials (lmaxx) =  3
               file C.pbe-n-kjpaw_psl.1.0.0.UPF: wavefunction(s)  2S 2P renormalized

     G-vector sticks info
     --------------------
     sticks:   dense  smooth     PW     G-vecs:    dense   smooth      PW
     Sum        7539    3379   1041              1721397   511267   86527



     bravais-lattice index     =            0
     lattice parameter (alat)  =       4.6487  a.u.
     unit-cell volume          =   14940.8128 (a.u.)^3
     number of atoms/cell      =           40
     number of atomic types    =            1
     number of electrons       =       160.00
     number of Kohn-Sham states=          180
     kinetic-energy cutoff     =      40.0000  Ry
     charge density cutoff     =     360.0000  Ry
     convergence threshold     =      1.0E-06
     mixing beta               =       0.7000
     number of iterations used =            8  plain     mixing
     Exchange-correlation      =  SLA  PW   PBX  PBC ( 1  4  3  4 0 0)

     celldm(1)=   4.648726  celldm(2)=   0.000000  celldm(3)=   0.000000
     celldm(4)=   0.000000  celldm(5)=   0.000000  celldm(6)=   0.000000

     crystal axes: (cart. coord. in units of alat)
               a(1) = (   1.000000   0.000000   0.000000 )  
               a(2) = (   0.000000  12.195122   0.000000 )  
               a(3) = (   0.000000   0.000000  12.195122 )  

     reciprocal axes: (cart. coord. in units 2 pi/alat)
               b(1) = (  1.000000  0.000000  0.000000 )  
               b(2) = (  0.000000  0.082000  0.000000 )  
               b(3) = (  0.000000  0.000000  0.082000 )  


     PseudoPot. # 1 for  C read from file:
     /home/renebeth/Downloads/pslibrary.1.0.0/pbe/PSEUDOPOTENTIALS/C.pbe-n-kjpaw_psl.1.0.0.UPF
     MD5 check sum: 7e2e586787e160620b6639e879676452
     Pseudo is Projector augmented-wave + core cor, Zval =  4.0
     Generated using "atomic" code by A. Dal Corso  v.6.0
     Shape of augmentation charge: PSQ
     Using radial grid of 1073 points,  4 beta functions with: 
                l(1) =   0
                l(2) =   0
                l(3) =   1
                l(4) =   1
     Q(r) pseudized with 0 coefficients 


     atomic species   valence    mass     pseudopotential
        C              4.00    12.01100      C( 1.00)

      2 Sym. Ops. (no inversion) found


                                    s                        frac. trans.

      isym =  1     identity                                     

 cryst.   s( 1) = (     1          0          0      )
                  (     0          1          0      )
                  (     0          0          1      )

 cart.    s( 1) = (  1.0000000  0.0000000  0.0000000 )
                  (  0.0000000  1.0000000  0.0000000 )
                  (  0.0000000  0.0000000  1.0000000 )


      isym =  2     180 deg rotation - cart. axis [1,0,0]        

 cryst.   s( 2) = (     1          0          0      )
                  (     0         -1          0      )
                  (     0          0         -1      )

 cart.    s( 2) = (  1.0000000  0.0000000  0.0000000 )
                  (  0.0000000 -1.0000000  0.0000000 )
                  (  0.0000000  0.0000000 -1.0000000 )


   Cartesian axes

     site n.     atom                  positions (alat units)
         1           C   tau(   1) = (   0.4999008   0.8516809  -2.6212049  )
         2           C   tau(   2) = (   0.0000000   1.6199935  -2.2297301  )
         3           C   tau(   3) = (   0.4999008   2.2297301  -1.6199935  )
         4           C   tau(   4) = (   0.0000000   2.6212049  -0.8516809  )
         5           C   tau(   5) = (   0.4999008   2.7560980   0.0000000  )
         6           C   tau(   6) = (   0.0000000   2.6212049   0.8516809  )
         7           C   tau(   7) = (   0.4999008   2.2297301   1.6199935  )
         8           C   tau(   8) = (   0.0000000   1.6199935   2.2297301  )
         9           C   tau(   9) = (   0.4999008   0.8516809   2.6212049  )
        10           C   tau(  10) = (   0.0000000   0.0000000   2.7560980  )
        11           C   tau(  11) = (   0.4999008  -0.8516809   2.6212049  )
        12           C   tau(  12) = (   0.0000000  -1.6199935   2.2297301  )
        13           C   tau(  13) = (   0.4999008  -2.2297301   1.6199935  )
        14           C   tau(  14) = (   0.0000000  -2.6212049   0.8516809  )
        15           C   tau(  15) = (   0.4999008  -2.7560980   0.0000000  )
        16           C   tau(  16) = (   0.0000000  -2.6212049  -0.8516809  )
        17           C   tau(  17) = (   0.4999008  -2.2297301  -1.6199935  )
        18           C   tau(  18) = (   0.0000000  -1.6199935  -2.2297301  )
        19           C   tau(  19) = (   0.4999008  -0.8516809  -2.6212049  )
        20           C   tau(  20) = (   0.0000000   0.0000000  -2.7560980  )
        21           C   tau(  21) = (   0.4999008   1.3780488  -2.3868508  )
        22           C   tau(  22) = (   0.0000000   2.0481797  -1.8441894  )
        23           C   tau(  23) = (   0.4999008   2.5178207  -1.1210061  )
        24           C   tau(  24) = (   0.0000000   2.7409996  -0.2880907  )
        25           C   tau(  25) = (   0.4999008   2.6958703   0.5730248  )
        26           C   tau(  26) = (   0.0000000   2.3868508   1.3780488  )
        27           C   tau(  27) = (   0.4999008   1.8441894   2.0481797  )
        28           C   tau(  28) = (   0.0000000   1.1210061   2.5178207  )
        29           C   tau(  29) = (   0.4999008   0.2880907   2.7409996  )
        30           C   tau(  30) = (   0.0000000  -0.5730248   2.6958703  )
        31           C   tau(  31) = (   0.4999008  -1.3780488   2.3868508  )
        32           C   tau(  32) = (   0.0000000  -2.0481797   1.8441894  )
        33           C   tau(  33) = (   0.4999008  -2.5178207   1.1210061  )
        34           C   tau(  34) = (   0.0000000  -2.7409996   0.2880907  )
        35           C   tau(  35) = (   0.4999008  -2.6958703  -0.5730248  )
        36           C   tau(  36) = (   0.0000000  -2.3868508  -1.3780488  )
        37           C   tau(  37) = (   0.4999008  -1.8441894  -2.0481797  )
        38           C   tau(  38) = (   0.0000000  -1.1210061  -2.5178207  )
        39           C   tau(  39) = (   0.4999008  -0.2880907  -2.7409996  )
        40           C   tau(  40) = (   0.0000000   0.5730248  -2.6958703  )

   Crystallographic axes

     site n.     atom                  positions (cryst. coord.)
         1           C   tau(   1) = (  0.4999008  0.0698378 -0.2149388  )
         2           C   tau(   2) = (  0.0000000  0.1328395 -0.1828379  )
         3           C   tau(   3) = (  0.4999008  0.1828379 -0.1328395  )
         4           C   tau(   4) = (  0.0000000  0.2149388 -0.0698378  )
         5           C   tau(   5) = (  0.4999008  0.2260000  0.0000000  )
         6           C   tau(   6) = (  0.0000000  0.2149388  0.0698378  )
         7           C   tau(   7) = (  0.4999008  0.1828379  0.1328395  )
         8           C   tau(   8) = (  0.0000000  0.1328395  0.1828379  )
         9           C   tau(   9) = (  0.4999008  0.0698378  0.2149388  )
        10           C   tau(  10) = (  0.0000000  0.0000000  0.2260000  )
        11           C   tau(  11) = (  0.4999008 -0.0698378  0.2149388  )
        12           C   tau(  12) = (  0.0000000 -0.1328395  0.1828379  )
        13           C   tau(  13) = (  0.4999008 -0.1828379  0.1328395  )
        14           C   tau(  14) = (  0.0000000 -0.2149388  0.0698378  )
        15           C   tau(  15) = (  0.4999008 -0.2260000  0.0000000  )
        16           C   tau(  16) = (  0.0000000 -0.2149388 -0.0698378  )
        17           C   tau(  17) = (  0.4999008 -0.1828379 -0.1328395  )
        18           C   tau(  18) = (  0.0000000 -0.1328395 -0.1828379  )
        19           C   tau(  19) = (  0.4999008 -0.0698378 -0.2149388  )
        20           C   tau(  20) = (  0.0000000  0.0000000 -0.2260000  )
        21           C   tau(  21) = (  0.4999008  0.1130000 -0.1957218  )
        22           C   tau(  22) = (  0.0000000  0.1679507 -0.1512235  )
        23           C   tau(  23) = (  0.4999008  0.2064613 -0.0919225  )
        24           C   tau(  24) = (  0.0000000  0.2247620 -0.0236234  )
        25           C   tau(  25) = (  0.4999008  0.2210614  0.0469880  )
        26           C   tau(  26) = (  0.0000000  0.1957218  0.1130000  )
        27           C   tau(  27) = (  0.4999008  0.1512235  0.1679507  )
        28           C   tau(  28) = (  0.0000000  0.0919225  0.2064613  )
        29           C   tau(  29) = (  0.4999008  0.0236234  0.2247620  )
        30           C   tau(  30) = (  0.0000000 -0.0469880  0.2210614  )
        31           C   tau(  31) = (  0.4999008 -0.1130000  0.1957218  )
        32           C   tau(  32) = (  0.0000000 -0.1679507  0.1512235  )
        33           C   tau(  33) = (  0.4999008 -0.2064613  0.0919225  )
        34           C   tau(  34) = (  0.0000000 -0.2247620  0.0236234  )
        35           C   tau(  35) = (  0.4999008 -0.2210614 -0.0469880  )
        36           C   tau(  36) = (  0.0000000 -0.1957218 -0.1130000  )
        37           C   tau(  37) = (  0.4999008 -0.1512235 -0.1679507  )
        38           C   tau(  38) = (  0.0000000 -0.0919225 -0.2064613  )
        39           C   tau(  39) = (  0.4999008 -0.0236234 -0.2247620  )
        40           C   tau(  40) = (  0.0000000  0.0469880 -0.2210614  )

     number of k points=     6  gaussian smearing, width (Ry)=  0.0300
                       cart. coord. in units 2pi/alat
        k(    1) = (   0.0000000   0.0000000   0.0000000), wk =   0.2000000
        k(    2) = (   0.1000000   0.0000000   0.0000000), wk =   0.4000000
        k(    3) = (   0.2000000   0.0000000   0.0000000), wk =   0.4000000
        k(    4) = (   0.3000000   0.0000000   0.0000000), wk =   0.4000000
        k(    5) = (   0.4000000   0.0000000   0.0000000), wk =   0.4000000
        k(    6) = (  -0.5000000   0.0000000   0.0000000), wk =   0.2000000

                       cryst. coord.
        k(    1) = (   0.0000000   0.0000000   0.0000000), wk =   0.2000000
        k(    2) = (   0.1000000   0.0000000   0.0000000), wk =   0.4000000
        k(    3) = (   0.2000000   0.0000000   0.0000000), wk =   0.4000000
        k(    4) = (   0.3000000   0.0000000   0.0000000), wk =   0.4000000
        k(    5) = (   0.4000000   0.0000000   0.0000000), wk =   0.4000000
        k(    6) = (  -0.5000000   0.0000000   0.0000000), wk =   0.2000000

     Dense  grid:  1721397 G-vectors     FFT dimensions: (  30, 360, 360)

     Smooth grid:   511267 G-vectors     FFT dimensions: (  20, 240, 240)

     Estimated max dynamical RAM per process >    3905.22Mb

     Check: negative/imaginary core charge=   -0.000004    0.000000

     Initial potential from superposition of free atoms
     Check: negative starting charge=   -0.003230

     starting charge  159.99834, renormalised to  160.00000

     negative rho (up, down):  3.230E-03 0.000E+00
     Starting wfc are  160 randomized atomic wfcs +   20 random wfc

     total cpu time spent up to now is      195.2 secs

     Self-consistent Calculation

     iteration #  1     ecut=    40.00 Ry     beta=0.70
     Davidson diagonalization with overlap
     ethr =  1.00E-02,  avg # of iterations = 11.5

     negative rho (up, down):  5.188E-03 0.000E+00

     total cpu time spent up to now is     1645.0 secs

     total energy              =    -736.90891402 Ry
     Harris-Foulkes estimate   =    -739.48712281 Ry
     estimated scf accuracy    <       4.17727727 Ry

     iteration #  2     ecut=    40.00 Ry     beta=0.70
     Davidson diagonalization with overlap
     ethr =  2.61E-03,  avg # of iterations =  7.5

     negative rho (up, down):  5.664E-03 0.000E+00

     total cpu time spent up to now is     2451.0 secs

     total energy              =    -737.55544795 Ry
     Harris-Foulkes estimate   =    -737.63022759 Ry
     estimated scf accuracy    <       0.13551248 Ry

     iteration #  3     ecut=    40.00 Ry     beta=0.70
     Davidson diagonalization with overlap
     ethr =  8.47E-05,  avg # of iterations =  7.7

     negative rho (up, down):  5.891E-03 0.000E+00

     total cpu time spent up to now is     3399.7 secs

     total energy              =    -737.57863282 Ry
     Harris-Foulkes estimate   =    -737.62921537 Ry
     estimated scf accuracy    <       0.09794624 Ry

     iteration #  4     ecut=    40.00 Ry     beta=0.70
     Davidson diagonalization with overlap
     ethr =  6.12E-05,  avg # of iterations = 10.2

     negative rho (up, down):  6.062E-03 0.000E+00

     total cpu time spent up to now is     4110.2 secs

     total energy              =    -737.60218864 Ry
     Harris-Foulkes estimate   =    -737.60305759 Ry
     estimated scf accuracy    <       0.00329757 Ry

     iteration #  5     ecut=    40.00 Ry     beta=0.70
     Davidson diagonalization with overlap
     c_bands:  2 eigenvalues not converged
     c_bands:  2 eigenvalues not converged
     c_bands:  1 eigenvalues not converged
     ethr =  2.06E-06,  avg # of iterations = 14.8

     negative rho (up, down):  6.075E-03 0.000E+00

     total cpu time spent up to now is     4869.5 secs

     total energy              =    -737.60261289 Ry
     Harris-Foulkes estimate   =    -737.60266618 Ry
     estimated scf accuracy    <       0.00011302 Ry

     iteration #  6     ecut=    40.00 Ry     beta=0.70
     Davidson diagonalization with overlap
     ethr =  7.06E-08,  avg # of iterations =  4.7

     negative rho (up, down):  6.083E-03 0.000E+00

     total cpu time spent up to now is     5399.6 secs

     total energy              =    -737.60264756 Ry
     Harris-Foulkes estimate   =    -737.60266205 Ry
     estimated scf accuracy    <       0.00004921 Ry

     iteration #  7     ecut=    40.00 Ry     beta=0.70
     Davidson diagonalization with overlap
     ethr =  3.08E-08,  avg # of iterations =  1.2

     negative rho (up, down):  6.086E-03 0.000E+00

     total cpu time spent up to now is     5892.2 secs

     End of self-consistent calculation

          k = 0.0000 0.0000 0.0000 ( 63941 PWs)   bands (ev):

   -22.1334 -22.0722 -22.0718 -21.8884 -21.8881 -21.5834 -21.5832 -21.1594
   -21.1593 -20.6192 -20.6192 -19.9671 -19.9671 -19.2088 -19.2088 -18.3545
   -18.3545 -17.4349 -17.4348 -16.7648 -15.7584 -15.0054 -15.0052 -13.8393
   -13.8393 -12.5848 -12.5848 -11.2921 -11.2921 -10.2198 -10.1478 -10.1475
   -10.0222 -10.0221  -9.9341  -9.9338  -9.5928  -9.5926  -9.2542  -9.2540
    -8.9725  -8.9128  -8.9124  -8.7345  -8.7342  -8.4433  -8.4432  -8.4189
    -8.4188  -8.2950  -8.2950  -8.0501  -8.0499  -7.5856  -7.5856  -7.5726
    -7.5725  -7.4041  -7.4039  -7.0389  -7.0388  -6.7490  -6.7490  -6.4925
    -6.4924  -6.4394  -6.4391  -5.9991  -5.9989  -5.8633  -5.8632  -5.7711
    -5.7708  -5.6446  -5.6443  -5.5299  -5.5135  -5.0672  -5.0669  -4.7000
    -0.8079  -0.3622  -0.3619   0.5704   0.6634   0.6636   0.7981   0.7983
     1.0623   1.0946   1.2113   1.3409   1.3410   1.4673   1.5422   1.5423
     1.6469   1.6479   1.7104   1.7765   1.7765   1.8818   1.9016   1.9017
     1.9243   1.9243   1.9350   2.0087   2.3403   2.3431   2.3578   2.3579
     2.3919   2.5568   2.5569   2.5587   2.6666   2.7091   2.7208   2.7480
     2.7481   2.8595   2.8595   2.8772   3.1177   3.1601   3.2228   3.2229
     3.2454   3.2601   3.3142   3.3219   3.3721   3.3722   3.7330   3.7330
     3.7894   3.8022   3.8266   3.9442   3.9442   3.9722   4.0162   4.0163
     4.1069   4.1376   4.1876   4.2433   4.2913   4.2913   4.3565   4.3566
     4.4781   4.5376   4.5377   4.5483   4.6165   4.6165   4.6442   4.7533
     4.9256   4.9445   4.9448   5.0002   5.0685   5.1264   5.1607   5.1608
     5.1700   5.1906   5.2317   5.2318   5.2392   5.2751   5.3767   5.3784
     5.4075   5.4117   5.4117   5.4268

     occupation numbers 
     1.0000   1.0000   1.0000   1.0000   1.0000   1.0000   1.0000   1.0000
     1.0000   1.0000   1.0000   1.0000   1.0000   1.0000   1.0000   1.0000
     1.0000   1.0000   1.0000   1.0000   1.0000   1.0000   1.0000   1.0000
     1.0000   1.0000   1.0000   1.0000   1.0000   1.0000   1.0000   1.0000
     1.0000   1.0000   1.0000   1.0000   1.0000   1.0000   1.0000   1.0000
     1.0000   1.0000   1.0000   1.0000   1.0000   1.0000   1.0000   1.0000
     1.0000   1.0000   1.0000   1.0000   1.0000   1.0000   1.0000   1.0000
     1.0000   1.0000   1.0000   1.0000   1.0000   1.0000   1.0000   1.0000
     1.0000   1.0000   1.0000   1.0000   1.0000   1.0000   1.0000   1.0000
     1.0000   1.0000   1.0000   1.0000   1.0000   1.0000   1.0000   1.0000
     0.0000   0.0000   0.0000   0.0000   0.0000   0.0000   0.0000   0.0000
     0.0000   0.0000   0.0000   0.0000   0.0000   0.0000   0.0000   0.0000
     0.0000   0.0000   0.0000   0.0000   0.0000   0.0000   0.0000   0.0000
     0.0000   0.0000   0.0000   0.0000   0.0000   0.0000   0.0000   0.0000
     0.0000   0.0000   0.0000   0.0000   0.0000   0.0000   0.0000   0.0000
     0.0000   0.0000   0.0000   0.0000   0.0000   0.0000   0.0000   0.0000
     0.0000   0.0000   0.0000   0.0000   0.0000   0.0000   0.0000   0.0000
     0.0000   0.0000   0.0000   0.0000   0.0000   0.0000   0.0000   0.0000
     0.0000   0.0000   0.0000   0.0000   0.0000   0.0000   0.0000   0.0000
     0.0000   0.0000   0.0000   0.0000   0.0000   0.0000   0.0000   0.0000
     0.0000   0.0000   0.0000   0.0000   0.0000   0.0000   0.0000   0.0000
     0.0000   0.0000   0.0000   0.0000   0.0000   0.0000   0.0000   0.0000
     0.0000   0.0000   0.0000   0.0000

          k = 0.1000 0.0000 0.0000 ( 63989 PWs)   bands (ev):

   -21.9554 -21.8943 -21.8939 -21.7109 -21.7106 -21.4066 -21.4064 -20.9837
   -20.9835 -20.4450 -20.4449 -19.7949 -19.7949 -19.0396 -19.0395 -18.1895
   -18.1894 -17.2760 -17.2758 -16.6127 -15.6091 -14.8671 -14.8669 -13.7205
   -13.7204 -12.4959 -12.4959 -11.2498 -11.2498 -10.0463 -10.0463 -10.0085
    -9.9372  -9.9368  -9.7259  -9.7257  -9.7176  -9.6559  -9.6555  -9.4714
    -9.4711  -9.3935  -9.3933  -9.1687  -9.1685  -9.1677  -9.1675  -8.7512
    -8.7510  -8.4746  -8.4745  -8.2512  -8.2512  -8.0847  -8.0847  -7.7579
    -7.7578  -7.6093  -7.6092  -7.3876  -7.3876  -6.9970  -6.9970  -6.9507
    -6.9507  -6.5524  -6.5524  -6.4364  -6.4362  -6.3591  -6.3591  -6.1972
    -5.9969  -5.9967  -5.9086  -5.6661  -5.6659  -4.8621  -4.8618  -4.4857
    -0.8636  -0.4172  -0.4170   0.5910   0.5912   0.8125   1.0396   1.0398
     1.3060   1.3374   1.4578   1.5863   1.5863   1.7150   1.7863   1.7865
     1.7949   1.7949   1.8921   1.8938   1.9555   2.0223   2.0223   2.1262
     2.1704   2.1704   2.1813   2.2563   2.5841   2.5893   2.6034   2.6035
     2.6331   2.7974   2.8024   2.8024   2.8978   2.9543   2.9666   2.9910
     2.9910   3.0495   3.0568   3.1037   3.1037   3.1214   3.4157   3.4442
     3.4653   3.4653   3.5589   3.5665   3.6139   3.6140   3.9737   3.9737
     4.0309   4.0461   4.0661   4.1738   4.1738   4.1890   4.1891   4.2135
     4.2603   4.2603   4.3485   4.3839   4.4318   4.4894   4.5360   4.5360
     4.7119   4.7798   4.7798   4.7896   4.8535   4.8535   4.8915   4.9989
     5.0602   5.0716   5.3340   5.3770   5.3770   5.4438   5.4439   5.4560
     5.4626   5.4761   5.4855   5.5398   5.5399   5.5926   5.5927   5.5985
     5.6376   5.7534   5.7574   5.7700

     occupation numbers 
     1.0000   1.0000   1.0000   1.0000   1.0000   1.0000   1.0000   1.0000
     1.0000   1.0000   1.0000   1.0000   1.0000   1.0000   1.0000   1.0000
     1.0000   1.0000   1.0000   1.0000   1.0000   1.0000   1.0000   1.0000
     1.0000   1.0000   1.0000   1.0000   1.0000   1.0000   1.0000   1.0000
     1.0000   1.0000   1.0000   1.0000   1.0000   1.0000   1.0000   1.0000
     1.0000   1.0000   1.0000   1.0000   1.0000   1.0000   1.0000   1.0000
     1.0000   1.0000   1.0000   1.0000   1.0000   1.0000   1.0000   1.0000
     1.0000   1.0000   1.0000   1.0000   1.0000   1.0000   1.0000   1.0000
     1.0000   1.0000   1.0000   1.0000   1.0000   1.0000   1.0000   1.0000
     1.0000   1.0000   1.0000   1.0000   1.0000   1.0000   1.0000   1.0000
     0.0000   0.0000   0.0000   0.0000   0.0000   0.0000   0.0000   0.0000
     0.0000   0.0000   0.0000   0.0000   0.0000   0.0000   0.0000   0.0000
     0.0000   0.0000   0.0000   0.0000   0.0000   0.0000   0.0000   0.0000
     0.0000   0.0000   0.0000   0.0000   0.0000   0.0000   0.0000   0.0000
     0.0000   0.0000   0.0000   0.0000   0.0000   0.0000   0.0000   0.0000
     0.0000   0.0000   0.0000   0.0000   0.0000   0.0000   0.0000   0.0000
     0.0000   0.0000   0.0000   0.0000   0.0000   0.0000   0.0000   0.0000
     0.0000   0.0000   0.0000   0.0000   0.0000   0.0000   0.0000   0.0000
     0.0000   0.0000   0.0000   0.0000   0.0000   0.0000   0.0000   0.0000
     0.0000   0.0000   0.0000   0.0000   0.0000   0.0000   0.0000   0.0000
     0.0000   0.0000   0.0000   0.0000   0.0000   0.0000   0.0000   0.0000
     0.0000   0.0000   0.0000   0.0000   0.0000   0.0000   0.0000   0.0000
     0.0000   0.0000   0.0000   0.0000

          k = 0.2000 0.0000 0.0000 ( 63949 PWs)   bands (ev):

   -21.4234 -21.3627 -21.3623 -21.1805 -21.1802 -20.8783 -20.8781 -20.4586
   -20.4584 -19.9245 -19.9245 -19.2811 -19.2811 -18.5352 -18.5351 -17.6986
   -17.6986 -16.8041 -16.8039 -16.1571 -15.2003 -14.4960 -14.4958 -13.4429
   -13.4428 -12.3969 -12.3969 -11.4733 -11.4732 -11.4127 -11.3366 -11.3363
   -11.0995 -11.0992 -10.7031 -10.7030 -10.6708 -10.6707 -10.0085 -10.0085
   -10.0048 -10.0047  -9.3839  -9.3497  -9.3497  -9.3170  -9.3167  -9.1526
    -9.1526  -9.1374  -9.1371  -8.7051  -8.7050  -8.5906  -8.5905  -8.4596
    -8.4596  -8.0510  -8.0507  -7.9344  -7.9343  -7.7832  -7.5232  -7.5231
    -7.4185  -7.4184  -6.9982  -6.9980  -6.9354  -6.8908  -6.8905  -6.8085
    -6.8085  -5.9822  -5.9821  -5.0971  -5.0970  -4.2649  -4.2646  -3.8470
    -1.1813  -0.7247  -0.7245   0.2195   0.2197   1.2775   1.2775   1.5394
     1.7642   1.7644   2.0358   2.0649   2.1970   2.3167   2.3167   2.3208
     2.3208   2.4575   2.5178   2.5180   2.6271   2.6297   2.6874   2.7587
     2.7587   2.8581   2.9094   2.9094   2.9191   2.9993   3.2508   3.2508
     3.3172   3.3247   3.3467   3.3467   3.3556   3.5397   3.5397   3.5405
     3.6551   3.6896   3.6975   3.7184   3.7184   3.8377   3.8377   3.8548
     4.0132   4.0167   4.1457   4.1738   4.1944   4.1944   4.2936   4.3008
     4.3336   4.3336   4.4891   4.4892   4.6937   4.6937   4.7504   4.7705
     4.7896   4.8231   4.8279   4.9188   4.9188   4.9301   4.9873   4.9873
     5.0646   5.1246   5.1624   5.2251   5.2340   5.2340   5.3221   5.3222
     5.4112   5.5077   5.5086   5.5086   5.5879   5.5879   5.6265   5.7314
     5.7687   6.0402   6.0619   6.0620   6.1548   6.1909   6.3124   6.3125
     6.3195   6.3440   6.3810   6.4408

     occupation numbers 
     1.0000   1.0000   1.0000   1.0000   1.0000   1.0000   1.0000   1.0000
     1.0000   1.0000   1.0000   1.0000   1.0000   1.0000   1.0000   1.0000
     1.0000   1.0000   1.0000   1.0000   1.0000   1.0000   1.0000   1.0000
     1.0000   1.0000   1.0000   1.0000   1.0000   1.0000   1.0000   1.0000
     1.0000   1.0000   1.0000   1.0000   1.0000   1.0000   1.0000   1.0000
     1.0000   1.0000   1.0000   1.0000   1.0000   1.0000   1.0000   1.0000
     1.0000   1.0000   1.0000   1.0000   1.0000   1.0000   1.0000   1.0000
     1.0000   1.0000   1.0000   1.0000   1.0000   1.0000   1.0000   1.0000
     1.0000   1.0000   1.0000   1.0000   1.0000   1.0000   1.0000   1.0000
     1.0000   1.0000   1.0000   1.0000   1.0000   1.0000   1.0000   1.0000
     0.0000   0.0000   0.0000   0.0000   0.0000   0.0000   0.0000   0.0000
     0.0000   0.0000   0.0000   0.0000   0.0000   0.0000   0.0000   0.0000
     0.0000   0.0000   0.0000   0.0000   0.0000   0.0000   0.0000   0.0000
     0.0000   0.0000   0.0000   0.0000   0.0000   0.0000   0.0000   0.0000
     0.0000   0.0000   0.0000   0.0000   0.0000   0.0000   0.0000   0.0000
     0.0000   0.0000   0.0000   0.0000   0.0000   0.0000   0.0000   0.0000
     0.0000   0.0000   0.0000   0.0000   0.0000   0.0000   0.0000   0.0000
     0.0000   0.0000   0.0000   0.0000   0.0000   0.0000   0.0000   0.0000
     0.0000   0.0000   0.0000   0.0000   0.0000   0.0000   0.0000   0.0000
     0.0000   0.0000   0.0000   0.0000   0.0000   0.0000   0.0000   0.0000
     0.0000   0.0000   0.0000   0.0000   0.0000   0.0000   0.0000   0.0000
     0.0000   0.0000   0.0000   0.0000   0.0000   0.0000   0.0000   0.0000
     0.0000   0.0000   0.0000   0.0000

          k = 0.3000 0.0000 0.0000 ( 63697 PWs)   bands (ev):

   -20.5445 -20.4845 -20.4841 -20.3044 -20.3041 -20.0060 -20.0058 -19.5922
   -19.5920 -19.0670 -19.0670 -18.4368 -18.4368 -17.7110 -17.7109 -16.9055
   -16.9055 -16.0556 -16.0555 -15.4004 -14.9149 -14.3926 -14.3924 -13.8994
   -13.8992 -13.4852 -13.4851 -13.0369 -13.0367 -12.9796 -12.7261 -12.7258
   -12.5169 -12.5169 -12.0142 -12.0140 -11.9229 -11.9229 -11.2694 -11.2693
   -11.0599 -11.0599 -10.5893 -10.5892 -10.0617 -10.0617  -9.9595  -9.9593
    -9.6330  -9.1538  -9.1538  -8.5845  -8.4652  -8.4652  -8.4370  -8.4367
    -8.2232  -8.2230  -8.1408  -8.1384  -8.1383  -8.0169  -8.0166  -7.7913
    -7.7911  -7.5741  -7.5739  -7.1720  -7.1718  -6.6029  -6.6029  -5.9146
    -5.9146  -5.1332  -5.1332  -4.2863  -4.2862  -3.4180  -3.4179  -2.7967
    -2.0667  -1.4602  -1.4600  -0.6272  -0.6271   0.1857   0.1857   0.9608
     0.9609   1.6900   1.6900   2.3603   2.3605   2.7499   2.9702   2.9704
     2.9773   2.9774   3.2419   3.2660   3.4260   3.5561   3.5562   3.6095
     3.6115   3.6959   3.7314   3.7315   3.8506   3.8606   3.9177   3.9833
     3.9833   4.0725   4.1375   4.1376   4.1503   4.1625   4.1627   4.2354
     4.3815   4.5286   4.5455   4.5579   4.5657   4.5658   4.7537   4.7674
     4.7675   4.8759   4.9049   4.9049   4.9137   4.9297   5.0587   5.0587
     5.0774   5.3715   5.3715   5.3749   5.3876   5.4660   5.4660   5.5006
     5.5126   5.7117   5.7181   5.8332   5.8332   5.9511   5.9891   6.0022
     6.0022   6.0041   6.1621   6.1621   6.1643   6.2065   6.2126   6.2592
     6.2593   6.3263   6.3263   6.3444   6.3637   6.4141   6.4375   6.4437
     6.4438   6.5869   6.5870   6.7407   6.7408   6.7527   6.7554   6.8411
     6.8946   6.9788   6.9789   7.1137

     occupation numbers 
     1.0000   1.0000   1.0000   1.0000   1.0000   1.0000   1.0000   1.0000
     1.0000   1.0000   1.0000   1.0000   1.0000   1.0000   1.0000   1.0000
     1.0000   1.0000   1.0000   1.0000   1.0000   1.0000   1.0000   1.0000
     1.0000   1.0000   1.0000   1.0000   1.0000   1.0000   1.0000   1.0000
     1.0000   1.0000   1.0000   1.0000   1.0000   1.0000   1.0000   1.0000
     1.0000   1.0000   1.0000   1.0000   1.0000   1.0000   1.0000   1.0000
     1.0000   1.0000   1.0000   1.0000   1.0000   1.0000   1.0000   1.0000
     1.0000   1.0000   1.0000   1.0000   1.0000   1.0000   1.0000   1.0000
     1.0000   1.0000   1.0000   1.0000   1.0000   1.0000   1.0000   1.0000
     1.0000   1.0000   1.0000   1.0000   1.0000   0.9997   0.9997   0.8969
     0.1029   0.0004   0.0004   0.0000   0.0000   0.0000   0.0000   0.0000
     0.0000   0.0000   0.0000   0.0000   0.0000   0.0000   0.0000   0.0000
     0.0000   0.0000   0.0000   0.0000   0.0000   0.0000   0.0000   0.0000
     0.0000   0.0000   0.0000   0.0000   0.0000   0.0000   0.0000   0.0000
     0.0000   0.0000   0.0000   0.0000   0.0000   0.0000   0.0000   0.0000
     0.0000   0.0000   0.0000   0.0000   0.0000   0.0000   0.0000   0.0000
     0.0000   0.0000   0.0000   0.0000   0.0000   0.0000   0.0000   0.0000
     0.0000   0.0000   0.0000   0.0000   0.0000   0.0000   0.0000   0.0000
     0.0000   0.0000   0.0000   0.0000   0.0000   0.0000   0.0000   0.0000
     0.0000   0.0000   0.0000   0.0000   0.0000   0.0000   0.0000   0.0000
     0.0000   0.0000   0.0000   0.0000   0.0000   0.0000   0.0000   0.0000
     0.0000   0.0000   0.0000   0.0000   0.0000   0.0000   0.0000   0.0000
     0.0000   0.0000   0.0000   0.0000

          k = 0.4000 0.0000 0.0000 ( 63738 PWs)   bands (ev):

   -19.3341 -19.2752 -19.2749 -19.0989 -19.0986 -18.8077 -18.8075 -18.4060
   -18.4058 -17.9020 -17.9020 -17.3126 -17.3125 -16.6855 -16.6855 -16.2111
   -16.2109 -16.1267 -16.1164 -16.1161 -15.2339 -15.2338 -15.2256 -15.2256
   -14.9158 -14.9157 -14.7307 -14.7305 -14.4434 -14.4434 -14.3484 -13.8624
   -13.8624 -13.1984 -13.1983 -12.7020 -12.4843 -12.4842 -12.2304 -12.2301
   -11.7955 -11.7953 -11.4220 -11.3529 -11.3528 -10.4336 -10.4335  -9.9833
    -9.6559  -9.6556  -9.6091  -9.6090  -9.1297  -9.1295  -8.9960  -8.9960
    -8.7612  -8.7611  -8.6988  -8.6987  -6.9281  -6.8657  -6.8654  -6.6799
    -6.6796  -6.3782  -6.3780  -5.9757  -5.9755  -5.4945  -5.4944  -4.9670
    -4.9669  -4.4402  -4.4401  -3.9798  -3.9797  -3.6629  -3.6626  -3.5498
    -1.3620  -1.3127  -1.3124  -1.1545  -1.1543  -0.8780  -0.8779  -0.4897
    -0.4896  -0.0051  -0.0051   0.5582   0.5584   1.1724   1.1725   1.7684
     1.7687   2.2239   2.2242   2.3986   4.4365   4.6508   4.6510   4.9429
     4.9629   5.1333   5.1596   5.1603   5.2511   5.2511   5.3426   5.3426
     5.4168   5.4170   5.4272   5.4542   5.4543   5.5434   5.5748   5.6268
     5.7008   5.7009   5.7131   5.8665   5.8785   5.8785   5.9172   5.9694
     5.9797   6.0820   6.1152   6.2743   6.2904   6.2904   6.4252   6.4733
     6.4734   6.5423   6.6049   6.6094   6.6408   6.6584   6.6660   6.6661
     6.7576   6.7577   6.7812   6.9522   6.9522   7.1054   7.1264   7.1934
     7.1934   7.1988   7.2033   7.2853   7.2854   7.3891   7.3893   7.5014
     7.6336   7.6337   7.6786   7.6806   7.6816   7.6818   7.7174   7.7471
     7.9048   7.9258   7.9259   8.0444   8.0445   8.0482   8.0793   8.0908
     8.1901   8.2669   8.2670   8.3382

     occupation numbers 
     1.0000   1.0000   1.0000   1.0000   1.0000   1.0000   1.0000   1.0000
     1.0000   1.0000   1.0000   1.0000   1.0000   1.0000   1.0000   1.0000
     1.0000   1.0000   1.0000   1.0000   1.0000   1.0000   1.0000   1.0000
     1.0000   1.0000   1.0000   1.0000   1.0000   1.0000   1.0000   1.0000
     1.0000   1.0000   1.0000   1.0000   1.0000   1.0000   1.0000   1.0000
     1.0000   1.0000   1.0000   1.0000   1.0000   1.0000   1.0000   1.0000
     1.0000   1.0000   1.0000   1.0000   1.0000   1.0000   1.0000   1.0000
     1.0000   1.0000   1.0000   1.0000   1.0000   1.0000   1.0000   1.0000
     1.0000   1.0000   1.0000   1.0000   1.0000   1.0000   1.0000   1.0000
     1.0000   1.0000   1.0000   1.0000   1.0000   1.0000   1.0000   0.9999
     0.0001   0.0001   0.0001   0.0000   0.0000   0.0000   0.0000   0.0000
     0.0000   0.0000   0.0000   0.0000   0.0000   0.0000   0.0000   0.0000
     0.0000   0.0000   0.0000   0.0000   0.0000   0.0000   0.0000   0.0000
     0.0000   0.0000   0.0000   0.0000   0.0000   0.0000   0.0000   0.0000
     0.0000   0.0000   0.0000   0.0000   0.0000   0.0000   0.0000   0.0000
     0.0000   0.0000   0.0000   0.0000   0.0000   0.0000   0.0000   0.0000
     0.0000   0.0000   0.0000   0.0000   0.0000   0.0000   0.0000   0.0000
     0.0000   0.0000   0.0000   0.0000   0.0000   0.0000   0.0000   0.0000
     0.0000   0.0000   0.0000   0.0000   0.0000   0.0000   0.0000   0.0000
     0.0000   0.0000   0.0000   0.0000   0.0000   0.0000   0.0000   0.0000
     0.0000   0.0000   0.0000   0.0000   0.0000   0.0000   0.0000   0.0000
     0.0000   0.0000   0.0000   0.0000   0.0000   0.0000   0.0000   0.0000
     0.0000   0.0000   0.0000   0.0000

          k =-0.5000 0.0000 0.0000 ( 63714 PWs)   bands (ev):

   -17.8278 -17.8246 -17.7724 -17.7720 -17.7692 -17.7688 -17.6082 -17.6079
   -17.6050 -17.6047 -17.3459 -17.3458 -17.3428 -17.3427 -17.0243 -17.0241
   -17.0218 -17.0216 -16.8236 -16.8235 -15.7933 -15.7932 -15.4968 -15.4968
   -15.4941 -15.4941 -14.8860 -14.8860 -14.8826 -14.8826 -14.1627 -14.1626
   -14.1590 -14.1589 -13.4316 -13.4314 -13.4275 -13.4273 -13.0156 -13.0110
   -11.4753 -11.4737 -11.0489 -11.0487 -11.0469 -11.0467 -10.3018 -10.3017
   -10.2997 -10.2996  -9.6028  -9.6027  -9.6011  -9.6010  -9.1063  -9.1063
    -9.1053  -9.1053  -8.9249  -8.9249  -5.2843  -5.2808  -5.2488  -5.2485
    -5.2454  -5.2451  -5.1499  -5.1496  -5.1468  -5.1465  -5.0150  -5.0149
    -5.0126  -5.0124  -4.8921  -4.8919  -4.8907  -4.8905  -4.8404  -4.8404
    -0.8893  -0.8892  -0.7662  -0.7661  -0.7646  -0.7645  -0.4466  -0.4465
    -0.4437  -0.4436  -0.0519  -0.0517  -0.0481  -0.0479   0.2746   0.2749
     0.2790   0.2793   0.4026   0.4072   4.9993   4.9993   5.2543   5.2544
     5.2556   5.2556   5.9697   5.9698   5.9720   5.9720   6.5671   6.5675
     6.7751   6.7753   6.7756   6.7758   6.9599   6.9599   6.9625   6.9625
     7.1050   7.1053   7.1206   7.1210   7.2273   7.2275   7.3865   7.3866
     7.3868   7.3869   7.4281   7.4283   7.4287   7.4289   7.6357   7.6358
     7.7415   7.7417   7.7866   7.7869   7.7987   7.7989   7.8751   7.8751
     7.8758   7.8759   8.0135   8.0138   8.0473   8.0473   8.0577   8.0577
     8.0871   8.0871   8.1968   8.1968   8.3930   8.3932   8.4202   8.4203
     8.4394   8.4395   8.4441   8.4442   8.4653   8.4653   8.4733   8.4735
     8.4902   8.4902   8.5495   8.5498   8.6396   8.6398   8.6944   8.6945
     8.6965   8.6966   8.7922   8.7922

     occupation numbers 
     1.0000   1.0000   1.0000   1.0000   1.0000   1.0000   1.0000   1.0000
     1.0000   1.0000   1.0000   1.0000   1.0000   1.0000   1.0000   1.0000
     1.0000   1.0000   1.0000   1.0000   1.0000   1.0000   1.0000   1.0000
     1.0000   1.0000   1.0000   1.0000   1.0000   1.0000   1.0000   1.0000
     1.0000   1.0000   1.0000   1.0000   1.0000   1.0000   1.0000   1.0000
     1.0000   1.0000   1.0000   1.0000   1.0000   1.0000   1.0000   1.0000
     1.0000   1.0000   1.0000   1.0000   1.0000   1.0000   1.0000   1.0000
     1.0000   1.0000   1.0000   1.0000   1.0000   1.0000   1.0000   1.0000
     1.0000   1.0000   1.0000   1.0000   1.0000   1.0000   1.0000   1.0000
     1.0000   1.0000   1.0000   1.0000   1.0000   1.0000   1.0000   1.0000
     0.0000   0.0000   0.0000   0.0000   0.0000   0.0000   0.0000   0.0000
     0.0000   0.0000   0.0000   0.0000   0.0000   0.0000   0.0000   0.0000
     0.0000   0.0000   0.0000   0.0000   0.0000   0.0000   0.0000   0.0000
     0.0000   0.0000   0.0000   0.0000   0.0000   0.0000   0.0000   0.0000
     0.0000   0.0000   0.0000   0.0000   0.0000   0.0000   0.0000   0.0000
     0.0000   0.0000   0.0000   0.0000   0.0000   0.0000   0.0000   0.0000
     0.0000   0.0000   0.0000   0.0000   0.0000   0.0000   0.0000   0.0000
     0.0000   0.0000   0.0000   0.0000   0.0000   0.0000   0.0000   0.0000
     0.0000   0.0000   0.0000   0.0000   0.0000   0.0000   0.0000   0.0000
     0.0000   0.0000   0.0000   0.0000   0.0000   0.0000   0.0000   0.0000
     0.0000   0.0000   0.0000   0.0000   0.0000   0.0000   0.0000   0.0000
     0.0000   0.0000   0.0000   0.0000   0.0000   0.0000   0.0000   0.0000
     0.0000   0.0000   0.0000   0.0000

     the Fermi energy is    -2.4319 ev

!    total energy              =    -737.60265544 Ry
     Harris-Foulkes estimate   =    -737.60265544 Ry
     estimated scf accuracy    <       0.00000034 Ry

     total all-electron energy =     -3048.166569 Ry

     The total energy is the sum of the following terms:

     one-electron contribution =   -6507.65668944 Ry
     hartree contribution      =    3281.75560982 Ry
     xc contribution           =    -185.75486810 Ry
     ewald contribution        =    2920.74532309 Ry
     one-center paw contrib.   =    -246.68893403 Ry
     smearing contrib. (-TS)   =      -0.00309679 Ry

     convergence has been achieved in   7 iterations

     Writing output data file ./mol.save

     init_run     :    400.35s CPU    195.09s WALL (       1 calls)
     electrons    :  10556.71s CPU   5697.05s WALL (       1 calls)

     Called by init_run:
     wfcinit      :    374.71s CPU    177.78s WALL (       1 calls)
     wfcinit:atom :      0.77s CPU      0.46s WALL (       6 calls)
     wfcinit:wfcr :    372.47s CPU    176.12s WALL (       6 calls)
     potinit      :      8.37s CPU      4.20s WALL (       1 calls)

     Called by electrons:
     c_bands      :   9272.75s CPU   5217.27s WALL (       7 calls)
     sum_band     :   1163.91s CPU    416.54s WALL (       7 calls)
     v_of_rho     :     20.90s CPU     15.81s WALL (       8 calls)
     v_h          :      1.84s CPU      0.97s WALL (       8 calls)
     v_xc         :     19.06s CPU     14.83s WALL (       8 calls)
     newd         :     81.02s CPU     49.23s WALL (       8 calls)
     PAW_pot      :     31.33s CPU      3.94s WALL (       8 calls)
     mix_rho      :      1.53s CPU      1.55s WALL (       7 calls)

     Called by c_bands:
     init_us_2    :     12.80s CPU      4.46s WALL (      90 calls)
     cegterg      :   9255.35s CPU   5203.78s WALL (      42 calls)

     Called by sum_band:
     sum_band:bec :      0.10s CPU      0.05s WALL (      42 calls)
     addusdens    :     57.98s CPU     35.53s WALL (       7 calls)

     Called by *egterg:
     h_psi        :   6474.92s CPU   2205.19s WALL (     393 calls)
     s_psi        :    565.10s CPU    565.10s WALL (     393 calls)
     g_psi        :      3.08s CPU      3.08s WALL (     345 calls)
     cdiaghg      :    103.22s CPU    103.22s WALL (     387 calls)
     cegterg:over :   1097.07s CPU   1097.08s WALL (     345 calls)
     cegterg:upda :    655.76s CPU    655.76s WALL (     345 calls)
     cegterg:last :    431.10s CPU    431.10s WALL (      48 calls)

     Called by h_psi:
     h_psi:pot    :   6471.36s CPU   2201.41s WALL (     393 calls)
     h_psi:calbec :    690.52s CPU    656.70s WALL (     393 calls)
     vloc_psi     :   5215.76s CPU    979.63s WALL (     393 calls)
     add_vuspsi   :    565.07s CPU    565.07s WALL (     393 calls)

     General routines
     calbec       :    906.03s CPU    868.36s WALL (     435 calls)
     fft          :     12.46s CPU     11.62s WALL (     124 calls)
     ffts         :      0.99s CPU      0.40s WALL (      15 calls)
     fftw         :   5722.74s CPU   1022.05s WALL (   54446 calls)
     interpolate  :      2.68s CPU      2.00s WALL (      15 calls)


     PAW routines
     PAW_pot      :     31.33s CPU      3.94s WALL (       8 calls)
     PAW_symme    :      0.00s CPU      0.00s WALL (      15 calls)

     PWSCF        :     3h 2m CPU        1h38m WALL


   This run was terminated on:  18:52:40  21Nov2018            

=------------------------------------------------------------------------------=
   JOB DONE.
=------------------------------------------------------------------------------=
